# vtk DataFile Version 3.0
Kratos Results - Step 0
ASCII
DATASET UNSTRUCTURED_GRID
POINTS 81 float
1.9126325734855528e-06 -1.2126299802675105e-06 0.0
0.25000069303876354 -1.9321778421532185e-07 0.0
0.5000005257081872 -2.9688484301774464e-07 0.0
0.7500002563418607 -2.899147627742793e-07 0.0
1.0 -2.878816329060945e-07 0.0
1.2499997436581394 -2.899147627557849e-07 0.0
1.4999994742918128 -2.9688484300925965e-07 0.0
1.7499993069612365 -1.9321778423617424e-07 0.0
1.9999980873674268 -1.212629980100839e-06 0.0
8.932174300515808e-07 0.24999983196155412 0.0
0.2500007577288891 0.24999976727110612 -1.225750288593587e-14
0.5000005079460358 0.24999978507583434 -1.1557343816466908e-14
0.7500002524742555 0.24999978759782188 -1.2461943973286167e-14
1.0 0.2499997856690746 -1.2680856091952314e-14
1.2499997475257445 0.24999978759782188 -1.2461946203696737e-14
1.4999994920539643 0.24999978507583437 -1.1557348538349688e-14
1.749999242271111 0.24999976727110612 -1.2257508179204199e-14
1.99999910678257 0.24999983196155412 0.0
9.968848591872495e-07 0.4999998242918267 0.0
0.2500007399241407 0.4999998420539589 -1.4442622767246243e-14
0.5000004901253214 0.4999998598746699 -2.1666987088249526e-14
0.7500002484001989 0.49999985854770407 -2.2543533785701065e-14
1.0 0.4999998600877021 -2.3011032401852938e-14
1.2499997515998011 0.49999985854770407 -2.254353684990385e-14
1.4999995098746783 0.4999998598746699 -2.1666992016846872e-14
1.7499992600758594 0.4999998420539589 -1.444262681068461e-14
1.9999990031151407 0.4999998242918267 0.0
9.899147591487455e-07 0.7499999186581573 0.0
0.2500007374021811 0.7499999225257475 -1.4733703876838958e-14
0.5000004914522928 0.7499999265997932 -2.4240582284836426e-14
0.7500002450824732 0.7499999299175251 -2.8388587232728537e-14
1.0 0.7499999303263882 -2.932063509526412e-14
1.2499997549175268 0.7499999299175251 -2.8388589849795656e-14
1.4999995085477074 0.7499999265997933 -2.4240586092782883e-14
1.749999262597819 0.7499999225257475 -1.4733706699114796e-14
1.9999990100852407 0.7499999186581573 0.0
9.878816372733493e-07 1.0 0.0
0.2500007393309295 1.0 -1.4471504717069764e-14
0.5000004899123013 1.0 -2.4877659350230468e-14
0.7500002446736105 1.0 -2.999739582844657e-14
1.0 1.0 -3.137469988059118e-14
1.2499997553263893 1.0 -2.999739816277542e-14
1.4999995100876988 1.0 -2.4877662734728385e-14
1.7499992606690706 1.0 -1.447150714088381e-14
1.9999990121183628 1.0 0.0
9.899147591527246e-07 1.2500000813418428 0.0
0.2500007374021811 1.2500000774742523 -1.4733704737212298e-14
0.5000004914522928 1.2500000734002068 -2.424058349283207e-14
0.7500002450824732 1.250000070082475 -2.838858813624847e-14
1.0 1.2500000696736118 -2.932063585885186e-14
1.2499997549175268 1.250000070082475 -2.8388590748298177e-14
1.4999995085477074 1.2500000734002068 -2.424058733199458e-14
1.749999262597819 1.2500000774742523 -1.473370756513375e-14
1.9999990100852407 1.2500000813418428 0.0
9.968848591947203e-07 1.5000001757081733 0.0
0.2500007399241407 1.5000001579460411 -1.4442624764908258e-14
0.5000004901253214 1.5000001401253302 -2.1666988978787092e-14
0.7500002484001989 1.5000001414522959 -2.2543535195407696e-14
1.0 1.500000139912298 -2.30110336052273e-14
1.2499997515998011 1.5000001414522959 -2.2543538223882077e-14
1.4999995098746783 1.5000001401253302 -2.166699393996868e-14
1.7499992600758594 1.5000001579460411 -1.4442628840825842e-14
1.9999990031151407 1.5000001757081733 0.0
8.932174300873387e-07 1.750000168038446 0.0
0.2500007577288891 1.750000232728894 -1.2257505170252136e-14
0.5000005079460358 1.7500002149241658 -1.1557345471465412e-14
0.7500002524742555 1.750000212402178 -1.2461945047222077e-14
1.0 1.7500002143309252 -1.2680856945861627e-14
1.2499997475257445 1.750000212402178 -1.2461947280156718e-14
1.4999994920539643 1.7500002149241658 -1.1557350169251954e-14
1.749999242271111 1.750000232728894 -1.2257510449966117e-14
1.99999910678257 1.750000168038446 0.0
1.912632573340857e-06 2.00000121262998 0.0
0.25000069303876354 2.0000001932177844 0.0
0.5000005257081872 2.000000296884843 0.0
0.7500002563418607 2.000000289914763 0.0
1.0 2.0000002878816328 0.0
1.2499997436581394 2.000000289914763 0.0
1.4999994742918128 2.000000296884843 0.0
1.7499993069612365 2.0000001932177844 0.0
1.9999980873674268 2.00000121262998 0.0

CELLS 64 320
4 0 1 10 9
4 1 2 11 10
4 2 3 12 11
4 3 4 13 12
4 4 5 14 13
4 5 6 15 14
4 6 7 16 15
4 7 8 17 16
4 9 10 19 18
4 10 11 20 19
4 11 12 21 20
4 12 13 22 21
4 13 14 23 22
4 14 15 24 23
4 15 16 25 24
4 16 17 26 25
4 18 19 28 27
4 19 20 29 28
4 20 21 30 29
4 21 22 31 30
4 22 23 32 31
4 23 24 33 32
4 24 25 34 33
4 25 26 35 34
4 27 28 37 36
4 28 29 38 37
4 29 30 39 38
4 30 31 40 39
4 31 32 41 40
4 32 33 42 41
4 33 34 43 42
4 34 35 44 43
4 36 37 46 45
4 37 38 47 46
4 38 39 48 47
4 39 40 49 48
4 40 41 50 49
4 41 42 51 50
4 42 43 52 51
4 43 44 53 52
4 45 46 55 54
4 46 47 56 55
4 47 48 57 56
4 48 49 58 57
4 49 50 59 58
4 50 51 60 59
4 51 52 61 60
4 52 53 62 61
4 54 55 64 63
4 55 56 65 64
4 56 57 66 65
4 57 58 67 66
4 58 59 68 67
4 59 60 69 68
4 60 61 70 69
4 61 62 71 70
4 63 64 73 72
4 64 65 74 73
4 65 66 75 74
4 66 67 76 75
4 67 68 77 76
4 68 69 78 77
4 69 70 79 78
4 70 71 80 79

CELL_TYPES 64
9
9
9
9
9
9
9
9
9
9
9
9
9
9
9
9
9
9
9
9
9
9
9
9
9
9
9
9
9
9
9
9
9
9
9
9
9
9
9
9
9
9
9
9
9
9
9
9
9
9
9
9
9
9
9
9
9
9
9
9
9
9
9
9

POINT_DATA 81
VECTORS DISPLACEMENT float
1.9126325734855528e-06 -1.2126299802675105e-06 0.0
6.930387635266826e-07 -1.9321778421532185e-07 0.0
5.257081871993631e-07 -2.9688484301774464e-07 0.0
2.563418607092151e-07 -2.899147627742793e-07 0.0
0.0 -2.878816329060945e-07 0.0
-2.563418606968564e-07 -2.899147627557849e-07 0.0
-5.257081872993644e-07 -2.9688484300925965e-07 0.0
-6.930387634716537e-07 -1.9321778423617424e-07 0.0
-1.9126325732942148e-06 -1.212629980100839e-06 0.0
8.932174300515808e-07 -1.6803844586970303e-07 0.0
7.57728889085303e-07 -2.3272889387733145e-07 -1.225750288593587e-14
5.079460357889216e-07 -2.1492416564938934e-07 -1.1557343816466908e-14
2.5247425550359927e-07 -2.1240217811218637e-07 -1.2461943973286167e-14
2.368541678692401e-19 -2.1433092540623524e-07 -1.2680856091952314e-14
-2.5247425539427585e-07 -2.124021781098658e-07 -1.2461946203696737e-14
-5.079460356894971e-07 -2.1492416563733595e-07 -1.1557348538349688e-14
-7.577288889607176e-07 -2.327288938745005e-07 -1.2257508179204199e-14
-8.932174300119635e-07 -1.6803844588102225e-07 0.0
9.968848591872495e-07 -1.7570817329972787e-07 0.0
7.399241406743943e-07 -1.5794604107864208e-07 -1.4442622767246243e-14
4.901253214826901e-07 -1.401253301407699e-07 -2.1666987088249526e-14
2.484001988426642e-07 -1.41452295927944e-07 -2.2543533785701065e-14
-2.8516591925211234e-18 -1.399122979271712e-07 -2.3011032401852938e-14
-2.48400198851004e-07 -1.414522959323326e-07 -2.254353684990385e-14
-4.901253215931901e-07 -1.4012533011946428e-07 -2.1666992016846872e-14
-7.3992414063943e-07 -1.5794604105949326e-07 -1.444262681068461e-14
-9.96884859267325e-07 -1.757081732776635e-07 0.0
9.899147591487455e-07 -8.134184274023166e-08 0.0
7.374021810973202e-07 -7.747425243484585e-08 -1.4733703876838958e-14
4.914522927155783e-07 -7.340020675582355e-08 -2.4240582284836426e-14
2.4508247322312314e-07 -7.008247498670088e-08 -2.8388587232728537e-14
-5.885753494924941e-18 -6.967361179841042e-08 -2.932063509526412e-14
-2.450824732339793e-07 -7.008247498121209e-08 -2.8388589849795656e-14
-4.914522926196637e-07 -7.340020673978127e-08 -2.4240586092782883e-14
-7.374021811600559e-07 -7.747425241329821e-08 -1.4733706699114796e-14
-9.89914759217535e-07 -8.134184272443084e-08 0.0
9.878816372733493e-07 -2.2000018788911865e-18 0.0
7.393309294535578e-07 -5.1405771593169054e-18 -1.4471504717069764e-14
4.899123012837495e-07 -6.231713364830154e-18 -2.4877659350230468e-14
2.446736104829974e-07 -9.157644017147164e-18 -2.999739582844657e-14
0.0 0.0 -3.137469988059118e-14
-2.4467361059454725e-07 -1.3181915661936373e-18 -2.999739816277542e-14
-4.899123011669271e-07 1.0918447651501622e-17 -2.4877662734728385e-14
-7.393309294469112e-07 1.3057992070669034e-17 -1.447150714088381e-14
-9.87881637230763e-07 1.4574497847453323e-17 0.0
9.899147591527246e-07 8.134184284756083e-08 0.0
7.374021811043257e-07 7.74742523108044e-08 -1.4733704737212298e-14
4.914522927295207e-07 7.34002068479033e-08 -2.424058349283207e-14
2.4508247323992525e-07 7.008247496515412e-08 -2.838858813624847e-14
2.8785678296884616e-18 6.967361168635183e-08 -2.932063585885186e-14
-2.4508247323178267e-07 7.008247497571267e-08 -2.8388590748298177e-14
-4.91452292614253e-07 7.340020687336109e-08 -2.424058733199458e-14
-7.374021811605099e-07 7.747425232938937e-08 -1.473370756513375e-14
-9.899147592152994e-07 8.13418428619783e-08 0.0
9.968848591947203e-07 1.7570817324629767e-07 0.0
7.399241406893343e-07 1.5794604106514866e-07 -1.4442624764908258e-14
4.901253214879229e-07 1.4012533011911004e-07 -2.1666988978787092e-14
2.4840019884183593e-07 1.4145229594472226e-07 -2.2543535195407696e-14
5.8998409971602055e-19 1.3991229792817066e-07 -2.30110336052273e-14
-2.484001988455806e-07 1.4145229594054287e-07 -2.2543538223882077e-14
-4.901253215968039e-07 1.401253301430377e-07 -2.166699393996868e-14
-7.399241406349888e-07 1.5794604109187647e-07 -1.4442628840825842e-14
-9.968848592561188e-07 1.7570817325133756e-07 0.0
8.932174300873387e-07 1.680384459400891e-07 0.0
7.577288890868139e-07 2.3272889391737718e-07 -1.2257505170252136e-14
5.079460357896243e-07 2.1492416577218887e-07 -1.1557345471465412e-14
2.5247425551083055e-07 2.1240217807958468e-07 -1.2461945047222077e-14
-3.680278729052234e-18 2.1433092533710345e-07 -1.2680856945861627e-14
-2.524742553964035e-07 2.124021780858069e-07 -1.2461947280156718e-14
-5.079460356863762e-07 2.1492416577387822e-07 -1.1557350169251954e-14
-7.577288889525618e-07 2.3272889392748242e-07 -1.2257510449966117e-14
-8.93217430023482e-07 1.680384459935456e-07 0.0
1.912632573340857e-06 1.2126299800075286e-06 0.0
6.930387635532741e-07 1.932177843540608e-07 0.0
5.25708187203693e-07 2.9688484281329296e-07 0.0
2.563418606896968e-07 2.8991476280661e-07 0.0
0.0 2.878816328571452e-07 0.0
-2.5634186071989664e-07 2.899147628108257e-07 0.0
-5.257081873014106e-07 2.9688484281742585e-07 0.0
-6.930387634871693e-07 1.9321778437833392e-07 0.0
-1.9126325731476357e-06 1.212629979900864e-06 0.0

SCALARS DISPLACEMENT_MAGNITUDE float 1
LOOKUP_TABLE default
2.2646489419337275e-06
7.19469137550508e-07
6.037463938626147e-07
3.869905932013455e-07
2.878816329060945e-07
3.86990593179304e-07
6.037463939455178e-07
7.194691375031006e-07
2.264648941682885e-06
9.088862946696115e-07
7.92663741696196e-07
5.515447146458452e-07
3.299362589332943e-07
2.143309254062356e-07
3.2993625884814376e-07
5.515447145495831e-07
7.926637415762702e-07
9.088862946327699e-07
1.0122513445983213e-06
7.565941354816049e-07
5.097626299617996e-07
2.8585207854476464e-07
1.399122979271731e-07
2.8585207855418343e-07
5.097626300621862e-07
7.565941354434136e-07
1.0122513446733513e-06
9.93251088980473e-07
7.41460879937319e-07
4.969033571703825e-07
2.549058100189661e-07
6.967361179841659e-08
2.549058100278948e-07
4.969033570731505e-07
7.414608799974597e-07
9.932510890477373e-07
9.878816372733493e-07
7.393309294535579e-07
4.899123012837501e-07
2.446736104829992e-07
3.137469988059118e-14
2.446736105945491e-07
4.899123011669278e-07
7.393309294469113e-07
9.87881637230763e-07
9.932510889932284e-07
7.414608799313252e-07
4.969033571977735e-07
2.5490581002919674e-07
6.9673611686358e-08
2.549058100242709e-07
4.969033570875308e-07
7.414608799891438e-07
9.932510890567737e-07
1.0122513445964043e-06
7.565941354933988e-07
5.097626299608768e-07
2.858520785523475e-07
1.3991229792817254e-07
2.858520785535334e-07
5.097626300721407e-07
7.565941354458305e-07
1.0122513446577456e-06
9.088862947177662e-07
7.92663741709398e-07
5.515447146943444e-07
3.2993625891783996e-07
2.1433092533710382e-07
3.2993625883428355e-07
5.515447145999162e-07
7.926637415840296e-07
9.088862946648935e-07
2.264648941672313e-06
7.194691376133818e-07
6.037463937658483e-07
3.869905932126372e-07
2.878816328571452e-07
3.8699059323579977e-07
6.037463938529676e-07
7.194691375562241e-07
2.2646489414520114e-06

VECTORS REACTION float
0.0 0.0 0.0
0.0 0.0 0.0
0.0 0.0 0.0
0.0 0.0 0.0
0.0 0.0 0.0
0.0 0.0 0.0
0.0 0.0 0.0
0.0 0.0 0.0
0.0 0.0 0.0
0.0 0.0 0.0
0.0 0.0 0.0
0.0 0.0 0.0
0.0 0.0 0.0
0.0 0.0 0.0
0.0 0.0 0.0
0.0 0.0 0.0
0.0 0.0 0.0
0.0 0.0 0.0
0.0 0.0 0.0
0.0 0.0 0.0
0.0 0.0 0.0
0.0 0.0 0.0
0.0 0.0 0.0
0.0 0.0 0.0
0.0 0.0 0.0
0.0 0.0 0.0
0.0 0.0 0.0
0.0 0.0 0.0
0.0 0.0 0.0
0.0 0.0 0.0
0.0 0.0 0.0
0.0 0.0 0.0
0.0 0.0 0.0
0.0 0.0 0.0
0.0 0.0 0.0
0.0 0.0 0.0
0.0 0.0 0.0
0.0 0.0 0.0
0.0 0.0 0.0
0.0 0.0 0.0
0.0 0.0 0.0
0.0 0.0 0.0
0.0 0.0 0.0
0.0 0.0 0.0
0.0 0.0 0.0
0.0 0.0 0.0
0.0 0.0 0.0
0.0 0.0 0.0
0.0 0.0 0.0
0.0 0.0 0.0
0.0 0.0 0.0
0.0 0.0 0.0
0.0 0.0 0.0
0.0 0.0 0.0
0.0 0.0 0.0
0.0 0.0 0.0
0.0 0.0 0.0
0.0 0.0 0.0
0.0 0.0 0.0
0.0 0.0 0.0
0.0 0.0 0.0
0.0 0.0 0.0
0.0 0.0 0.0
0.0 0.0 0.0
0.0 0.0 0.0
0.0 0.0 0.0
0.0 0.0 0.0
0.0 0.0 0.0
0.0 0.0 0.0
0.0 0.0 0.0
0.0 0.0 0.0
0.0 0.0 0.0
0.0 0.0 0.0
0.0 0.0 0.0
0.0 0.0 0.0
0.0 0.0 0.0
0.0 0.0 0.0
0.0 0.0 0.0
0.0 0.0 0.0
0.0 0.0 0.0
0.0 0.0 0.0

VECTORS ROTATION float
0.0 0.0 1.0568757606239512e-05
-5.835786337487568e-14 0.0 -1.2326738974045835e-06
-4.658701235873851e-14 0.0 1.2089113537707006e-07
-5.11323800409194e-14 0.0 -9.36211225929583e-09
-5.248482700162166e-14 0.0 -6.14207879793233e-18
-5.113239016615984e-14 0.0 9.36211240515081e-09
-4.658703571761539e-14 0.0 -1.2089113531899595e-07
-5.835789115563762e-14 0.0 1.2326738969749589e-06
0.0 0.0 -1.0568757604659555e-05
0.0 6.235839699901326e-14 -1.2326773862371546e-06
-2.878293408640485e-14 2.074522782667191e-14 5.972668379086913e-07
-4.6768404349696065e-14 -5.389890794215415e-15 -2.9186591518377104e-09
-4.6839384072515625e-14 4.448362351265003e-15 2.3822513851243907e-08
-4.738543212296571e-14 4.273728103394513e-21 3.086357181203272e-17
-4.6839390710382285e-14 -4.448352558876458e-15 -2.3822513883645713e-08
-4.676841435736708e-14 5.389899796278262e-15 2.9186591066689403e-09
-2.878294143565738e-14 -2.0745237620416767e-14 -5.972668377155574e-07
0.0 -6.235842354797096e-14 1.2326773858677498e-06
0.0 6.431307790266102e-14 1.2089146871035732e-07
-6.409640494802993e-16 4.549935954795094e-14 -2.9189290400914703e-09
-2.524614532479426e-14 1.2582750579461256e-14 -1.5685036797768984e-08
-3.258013757920894e-14 1.112242906343111e-15 1.3415215999623619e-08
-3.3902306705678774e-14 6.481464017064077e-21 1.3890456946639772e-17
-3.2580137589058435e-14 -1.112232147720366e-15 -1.341521595197806e-08
-2.5246140959668022e-14 -1.2582747555515043e-14 1.5685036866668474e-08
-6.409556517477094e-16 -4.549937030627672e-14 2.91892898575121e-09
0.0 -6.431309691404893e-14 -1.2089146860963761e-07
0.0 6.305040799549446e-14 -9.362196856802631e-09
2.2048524864042037e-16 5.051245307588327e-14 2.3822480463864035e-08
-3.5545912335398735e-15 2.614644663052119e-14 1.341521452337525e-08
-1.4099809873225273e-14 8.646370991413178e-15 1.3552512763060764e-10
-1.6633381092431168e-14 5.7467006922969775e-21 -2.0609714810387395e-17
-1.4099807703678093e-14 -8.646362583003375e-15 -1.355251466980419e-10
-3.554587703862116e-15 -2.6146446015467404e-14 -1.3415214559024128e-08
2.2048805874539509e-16 -5.051246148433983e-14 -2.3822480520919705e-08
0.0 -6.305042071891182e-14 9.362196809237554e-09
0.0 6.112265288344993e-14 -1.1788831238164083e-17
-1.5637439794828505e-21 5.164308890841866e-14 -2.0559534907953114e-17
-2.595344113938729e-21 3.0670524109385514e-14 -1.2679062050936011e-17
-1.9330186666302766e-21 1.1831053736036273e-14 -3.180354991770563e-17
-1.6080459295430068e-21 5.127712567375026e-21 -3.81962078551127e-17
-1.9450431197754654e-21 -1.1831046217146688e-14 -3.441976981493828e-17
-2.6632105851614092e-21 -3.0670523833507445e-14 1.3171077747515934e-17
-1.5534874329294626e-21 -5.164309642729268e-14 -2.843009448976825e-18
0.0 -6.112266369066599e-14 1.6823048739897639e-18
0.0 6.305041185360692e-14 9.362196871176552e-09
-2.20489411031873e-16 5.051245577694174e-14 -2.382248049654576e-08
3.554587205040172e-15 2.6146446376871703e-14 -1.341521455976126e-08
1.409980673834945e-14 8.646369754672297e-15 -1.3552510743116947e-10
1.6633378359201665e-14 5.7040348023481634e-21 -1.3338696564408426e-17
1.4099804681897158e-14 -8.646361240571713e-15 1.35525121179228e-10
3.5545835742658786e-15 -2.6146445726808495e-14 1.3415214591004171e-08
-2.204923371218975e-16 -5.051246429108733e-14 2.3822480526926343e-08
0.0 -6.305042456171455e-14 -9.362196858030338e-09
0.0 6.43130880191686e-14 -1.2089146873992687e-07
6.40959864537331e-16 4.5499363273882386e-14 2.918928999309373e-09
2.524614393975573e-14 1.2582748248306383e-14 1.568503684938605e-08
3.2580137074108887e-14 1.1122414563201613e-15 -1.3415215943400698e-08
3.3902306425750383e-14 6.351840433196868e-21 1.6073280721120978e-17
3.258013706457162e-14 -1.1122305878794281e-15 1.3415215988584572e-08
2.524613973630046e-14 -1.2582745026151859e-14 -1.5685036830842676e-08
6.409515259413241e-16 -4.5499374142032286e-14 -2.918929028282075e-09
0.0 -6.431310716771484e-14 1.2089146860862583e-07
0.0 6.235840910002716e-14 1.232677385903508e-06
2.87829382481581e-14 2.074523077509126e-14 -5.972668377164618e-07
4.676840837833555e-14 -5.38989473877674e-15 2.918659089298422e-09
4.683938720736708e-14 4.448360916429281e-15 -2.3822513907731306e-08
4.738543485620823e-14 4.29374177204122e-21 3.574890411327147e-17
4.683939373213664e-14 -4.448351191662012e-15 2.3822513856737756e-08
4.676841848710661e-14 5.38990369735262e-15 -2.918659110071351e-09
2.8782945713395554e-14 -2.074524050119318e-14 5.972668376623491e-07
0.0 -6.235843560207223e-14 -1.2326773855715021e-06
0.0 0.0 -1.056875760461813e-05
5.835787487345669e-14 0.0 1.2326738971013601e-06
4.658702031924429e-14 0.0 -1.208911353565707e-07
5.1132384917203184e-14 0.0 9.362112511305474e-09
5.248483077754456e-14 0.0 -1.6097584735309602e-17
5.11323951052716e-14 0.0 -9.36211224362108e-09
4.6587043490505345e-14 0.0 1.2089113526357578e-07
5.835790251543591e-14 0.0 -1.2326738967263964e-06
0.0 0.0 1.0568757603169687e-05
