# vtk DataFile Version 3.0
Kratos Results - Step 2
ASCII
DATASET UNSTRUCTURED_GRID
POINTS 81 float
8.987165664734451e-05 -5.69777506376927e-05 0.0
0.2500325626682333 -9.077531299703253e-06 0.0
0.5000246998608627 -1.3948278562797074e-05 0.0
0.750012043967213 -1.3620737439069584e-05 0.0
1.0 -1.3525221118868495e-05 0.0
1.2499879560327798 -1.3620737440090126e-05 0.0
1.4999753001391667 -1.3948278554183428e-05 0.0
1.7499674373316545 -9.077531350076099e-06 0.0
1.9999101283437153 -5.697775034146577e-05 0.0
4.1964928890389384e-05 0.24999210416770348 0.0
0.25003560043997874 0.2499890656839345 -3.929955376020023e-11
0.5000238651894339 0.24998990258724407 -4.697757504481992e-11
0.7500118621109387 0.24999002104145823 -5.457814584762744e-11
0.9999999999999979 0.24998993044897225 -5.6924092540810406e-11
1.2499881378890647 0.24999002104145523 -5.457814501663318e-11
1.4999761348105436 0.24998990258725184 -4.697757351502071e-11
1.749964399560061 0.24998906568393536 -3.92995522531672e-11
1.9999580350710258 0.24999210416764228 0.0
4.683649380673604e-05 0.49999174425953163 0.0
0.25003476349200826 0.49999257888860027 -5.420855364680036e-11
0.5000230273426205 0.4999934167281046 -8.745229192226945e-11
0.7500116705644189 0.4999933544472337 -9.98481340049367e-11
1.0000000000000004 0.4999934267932252 -1.0436598188003174e-10
1.249988329435574 0.49999335444723686 -9.984813273149879e-11
1.4999769726573913 0.4999934167281005 -8.745228988991478e-11
1.7499652365079776 0.49999257888859866 -5.420855205615607e-11
1.9999531635061993 0.49999174425954723 0.0
4.6508908899082424e-05 0.749996178117265 0.0
0.2500346450997044 0.7499963599409362 -6.13076986012782e-11
0.5000230896354686 0.7499965514629715 -1.0512641729553503e-10
0.7500115145761668 0.7499967074649972 -1.2819576030603079e-10
0.9999999999999974 0.749996726704662 -1.3485527178344305e-10
1.2499884854238352 0.7499967074649959 -1.281957589893357e-10
1.4999769103645242 0.7499965514629722 -1.0512641537160155e-10
1.7499653549002963 0.7499963599409378 -6.130769720223879e-11
1.9999534910910948 0.7499961781172603 0.0
4.6413410219964054e-05 0.9999999999999992 0.0
0.25003473569461626 1.000000000000001 -6.294505216830787e-11
0.5000230173038747 0.9999999999999996 -1.106849448403774e-10
0.7500114953374531 1.0000000000000018 -1.3718334171473967e-10
1.0 1.0 -1.452372736027096e-10
1.2499885046625414 1.0000000000000018 -1.371833404314912e-10
1.499976982696126 0.9999999999999997 -1.1068494299242473e-10
1.7499652643053796 1.000000000000001 -6.294505084109922e-11
1.9999535865897802 0.9999999999999992 0.0
4.650890889908407e-05 1.2500038218827378 0.0
0.25003464509970325 1.2500036400590622 -6.130769987531886e-11
0.5000230896354673 1.2500034485370315 -1.0512641910928055e-10
0.7500115145761684 1.2500032925350015 -1.2819576206834896e-10
0.9999999999999974 1.250003273295343 -1.348552734250529e-10
1.2499884854238335 1.2500032925350029 -1.2819576074546904e-10
1.4999769103645253 1.2500034485370308 -1.0512641718247764e-10
1.7499653549002976 1.2500036400590606 -6.130769847425396e-11
1.9999534910910948 1.2500038218827425 0.0
4.6836493800368884e-05 1.500008255740468 0.0
0.2500347634920072 1.5000074211114043 -5.420855607497772e-11
0.5000230273426264 1.5000065832718865 -8.74522950178722e-11
0.7500116705644168 1.5000066455527752 -9.9848136641174e-11
1.0000000000000004 1.5000065732067724 -1.0436598423492981e-10
1.249988329435576 1.500006645552772 -9.984813536100976e-11
1.4999769726573855 1.5000065832718905 -8.745229297761844e-11
1.7499652365079787 1.5000074211114058 -5.420855448057186e-11
1.9999531635062056 1.5000082557404524 0.0
4.196492894604984e-05 1.7500078958323746 0.0
0.250035600439983 1.750010934316028 -3.929955657156682e-11
0.5000238651894315 1.7500100974127821 -4.6977577695764515e-11
0.7500118621109388 1.7500099789585362 -5.4578147790445945e-11
0.9999999999999979 1.750010069551034 -5.692409424091327e-11
1.2499881378890645 1.7500099789585393 -5.4578146956404464e-11
1.4999761348105463 1.7500100974127744 -4.6977576158412524e-11
1.7499643995600567 1.750010934316027 -3.9299555059584577e-11
1.9999580350709698 1.7500078958324359 0.0
8.987165633660816e-05 2.0000569777502517 0.0
0.2500325626682742 2.0000090775314026 0.0
0.5000246998608505 2.0000139482785393 0.0
0.7500120439672193 2.0000136207374517 0.0
1.0 2.0000135252211155 0.0
1.2499879560327734 2.0000136207374526 0.0
1.499975300139179 2.000013948278531 0.0
1.7499674373316134 2.0000090775314527 0.0
1.999910128344026 2.000056977749955 0.0

CELLS 64 320
4 0 1 10 9
4 1 2 11 10
4 2 3 12 11
4 3 4 13 12
4 4 5 14 13
4 5 6 15 14
4 6 7 16 15
4 7 8 17 16
4 9 10 19 18
4 10 11 20 19
4 11 12 21 20
4 12 13 22 21
4 13 14 23 22
4 14 15 24 23
4 15 16 25 24
4 16 17 26 25
4 18 19 28 27
4 19 20 29 28
4 20 21 30 29
4 21 22 31 30
4 22 23 32 31
4 23 24 33 32
4 24 25 34 33
4 25 26 35 34
4 27 28 37 36
4 28 29 38 37
4 29 30 39 38
4 30 31 40 39
4 31 32 41 40
4 32 33 42 41
4 33 34 43 42
4 34 35 44 43
4 36 37 46 45
4 37 38 47 46
4 38 39 48 47
4 39 40 49 48
4 40 41 50 49
4 41 42 51 50
4 42 43 52 51
4 43 44 53 52
4 45 46 55 54
4 46 47 56 55
4 47 48 57 56
4 48 49 58 57
4 49 50 59 58
4 50 51 60 59
4 51 52 61 60
4 52 53 62 61
4 54 55 64 63
4 55 56 65 64
4 56 57 66 65
4 57 58 67 66
4 58 59 68 67
4 59 60 69 68
4 60 61 70 69
4 61 62 71 70
4 63 64 73 72
4 64 65 74 73
4 65 66 75 74
4 66 67 76 75
4 67 68 77 76
4 68 69 78 77
4 69 70 79 78
4 70 71 80 79

CELL_TYPES 64
9
9
9
9
9
9
9
9
9
9
9
9
9
9
9
9
9
9
9
9
9
9
9
9
9
9
9
9
9
9
9
9
9
9
9
9
9
9
9
9
9
9
9
9
9
9
9
9
9
9
9
9
9
9
9
9
9
9
9
9
9
9
9
9

POINT_DATA 81
VECTORS DISPLACEMENT float
8.987165664734451e-05 -5.69777506376927e-05 0.0
3.256266823330881e-05 -9.077531299703253e-06 0.0
2.4699860862711745e-05 -1.3948278562797074e-05 0.0
1.2043967212948916e-05 -1.3620737439069584e-05 0.0
0.0 -1.3525221118868495e-05 0.0
-1.2043967220248571e-05 -1.3620737440090126e-05 0.0
-2.4699860833418405e-05 -1.3948278554183428e-05 0.0
-3.256266834553434e-05 -9.077531350076099e-06 0.0
-8.987165628462168e-05 -5.697775034146577e-05 0.0
4.1964928890389384e-05 -7.895832296513557e-06 0.0
3.5600439978741596e-05 -1.0934316065510528e-05 -3.929955376020023e-11
2.3865189433901443e-05 -1.009741275594022e-05 -4.697757504481992e-11
1.1862110938719075e-05 -9.97895854175899e-06 -5.457814584762744e-11
-2.0866754029612326e-15 -1.006955102774052e-05 -5.6924092540810406e-11
-1.1862110935232816e-05 -9.978958544763103e-06 -5.457814501663318e-11
-2.3865189456327436e-05 -1.0097412748166613e-05 -4.697757351502071e-11
-3.5600439939138245e-05 -1.0934316064625636e-05 -3.92995522531672e-11
-4.1964928974282855e-05 -7.895832357716446e-06 0.0
4.683649380673604e-05 -8.255740468361143e-06 0.0
3.4763492008269025e-05 -7.421111399751851e-06 -5.420855364680036e-11
2.3027342620527156e-05 -6.583271895379044e-06 -8.745229192226945e-11
1.1670564418916754e-05 -6.645552766282958e-06 -9.98481340049367e-11
5.27769537802116e-16 -6.573206774748387e-06 -1.0436598188003174e-10
-1.167056442595512e-05 -6.645552763154547e-06 -9.984813273149879e-11
-2.3027342608688325e-05 -6.583271899503014e-06 -8.745228988991478e-11
-3.4763492022409644e-05 -7.4211114013232576e-06 -5.420855205615607e-11
-4.683649380076172e-05 -8.255740452766646e-06 0.0
4.6508908899082424e-05 -3.821882734968953e-06 0.0
3.464509970439816e-05 -3.6400590638083345e-06 -6.13076986012782e-11
2.3089635468604196e-05 -3.448537028460926e-06 -1.0512641729553503e-10
1.1514576166784585e-05 -3.292535002726262e-06 -1.2819576030603079e-10
-2.506797454203119e-15 -3.2732953380011857e-06 -1.3485527178344305e-10
-1.1514576164880007e-05 -3.2925350040633925e-06 -1.281957589893357e-10
-2.308963547587357e-05 -3.4485370277777895e-06 -1.0512641537160155e-10
-3.4645099703812526e-05 -3.6400590621333717e-06 -6.130769720223879e-11
-4.650890890521985e-05 -3.821882739722329e-06 0.0
4.6413410219964054e-05 -7.672980880797162e-16 0.0
3.4735694616260614e-05 1.023899824425716e-15 -6.294505216830787e-11
2.301730387463844e-05 -4.349685487010201e-16 -1.106849448403774e-10
1.1495337453114003e-05 1.6977601232940287e-15 -1.3718334171473967e-10
0.0 0.0 -1.452372736027096e-10
-1.1495337458516083e-05 1.707311436616384e-15 -1.371833404314912e-10
-2.3017303873923105e-05 -3.7743614729552694e-16 -1.1068494299242473e-10
-3.473569462049755e-05 1.0680154963567524e-15 -6.294505084109922e-11
-4.6413410219905677e-05 -7.450152763919715e-16 0.0
4.650890889908407e-05 3.821882737745047e-06 0.0
3.4645099703240955e-05 3.640059062109109e-06 -6.130769987531886e-11
2.3089635467318847e-05 3.4485370315717407e-06 -1.0512641910928055e-10
1.1514576168423964e-05 3.2925350015673364e-06 -1.2819576206834896e-10
-2.4996167007205763e-15 3.273295342958765e-06 -1.348552734250529e-10
-1.1514576166509717e-05 3.292535002813448e-06 -1.2819576074546904e-10
-2.3089635474680244e-05 3.4485370308702878e-06 -1.0512641718247764e-10
-3.4645099702500634e-05 3.6400590605343633e-06 -6.130769847425396e-11
-4.650890890513028e-05 3.821882742596503e-06 0.0
4.6836493800368884e-05 8.255740467988293e-06 0.0
3.47634920071879e-05 7.421111404344417e-06 -5.420855607497772e-11
2.3027342626331768e-05 6.583271886491618e-06 -8.74522950178722e-11
1.1670564416712796e-05 6.645552775174811e-06 -9.9848136641174e-11
5.295279381907675e-16 6.5732067723521925e-06 -1.0436598423492981e-10
-1.1670564423876511e-05 6.64555277209072e-06 -9.984813536100976e-11
-2.3027342614502956e-05 6.583271890490891e-06 -8.745229297761844e-11
-3.476349202132035e-05 7.421111405827723e-06 -5.420855448057186e-11
-4.683649379450577e-05 8.255740452404025e-06 0.0
4.196492894604984e-05 7.89583237457099e-06 0.0
3.5600439983004624e-05 1.0934316028018229e-05 -3.929955657156682e-11
2.3865189431580908e-05 1.0097412782034075e-05 -4.6977577695764515e-11
1.1862110938845175e-05 9.978958536225294e-06 -5.4578147790445945e-11
-2.0876379448678825e-15 1.006955103418279e-05 -5.692409424091327e-11
-1.1862110935466152e-05 9.978958539246327e-06 -5.4578146956404464e-11
-2.3865189453837888e-05 1.0097412774415687e-05 -4.6977576158412524e-11
-3.5600439943370116e-05 1.0934316027040328e-05 -3.9299555059584577e-11
-4.196492903012427e-05 7.895832435892974e-06 0.0
8.987165633660816e-05 5.6977750251541604e-05 0.0
3.256266827420752e-05 9.077531402476159e-06 0.0
2.4699860850501897e-05 1.3948278539321358e-05 0.0
1.2043967219332102e-05 1.3620737451891469e-05 0.0
0.0 1.3525221115535651e-05 0.0
-1.2043967226690779e-05 1.3620737452717422e-05 0.0
-2.4699860821118033e-05 1.3948278530818096e-05 0.0
-3.2562668386472435e-05 9.077531452912148e-06 0.0
-8.987165597410959e-05 5.697774995498464e-05 0.0

SCALARS DISPLACEMENT_MAGNITUDE float 1
LOOKUP_TABLE default
0.00010641136563482904
3.3804273945310985e-05
2.8366134764939404e-05
1.818190404249952e-05
1.3525221118868495e-05
1.8181904048099444e-05
2.8366134735196652e-05
3.380427406694128e-05
0.00010641136516987075
4.270128129728784e-05
3.72417855976591e-05
2.591341372883998e-05
1.5501267351529752e-05
1.006955102790142e-05
1.5501267350795846e-05
2.5913413746464336e-05
3.724178555954137e-05
4.270128139105156e-05
4.7558536592176164e-05
3.5546775817497845e-05
2.3949905574329138e-05
1.3430020306593228e-05
6.5732067755769215e-06
1.3430020311161478e-05
2.394990556407993e-05
3.554677583165494e-05
4.755853658358548e-05
4.666567683665375e-05
3.4835800026976e-05
2.3345742089741817e-05
1.1976069933884628e-05
3.2732953407791116e-06
1.1976069932421055e-05
2.3345742096830534e-05
3.483580002621855e-05
4.6665676843159856e-05
4.6413410219964054e-05
3.473569461631764e-05
2.301730387490457e-05
1.1495337453932564e-05
1.452372736027096e-10
1.1495337459334644e-05
2.3017303874189236e-05
3.4735694620554576e-05
4.6413410219905677e-05
4.6665676836882745e-05
3.483580002564758e-05
2.3345742088930085e-05
1.1976069935142216e-05
3.273295345736691e-06
1.1976069933644322e-05
2.334574209610711e-05
3.483580002474676e-05
4.666567684330598e-05
4.7558536585840953e-05
3.554677581739934e-05
2.3949905577467205e-05
1.343002030907795e-05
6.573206773180727e-06
1.3430020313777057e-05
2.3949905567193353e-05
3.5546775831530044e-05
4.7558536577361564e-05
4.270128136642195e-05
3.724178559072638e-05
2.5913413736870584e-05
1.5501267348063924e-05
1.006955103434369e-05
1.550126734742297e-05
2.591341375439977e-05
3.724178555255156e-05
4.2701281460385546e-05
0.00010641136516562717
3.3804274012305335e-05
2.836613474276411e-05
1.8181904056333184e-05
1.3525221115535651e-05
1.8181904061826436e-05
2.836613471299681e-05
3.380427413399052e-05
0.00010641136470068158

VECTORS REACTION float
0.0 0.0 0.0
0.0 0.0 0.0
0.0 0.0 0.0
0.0 0.0 0.0
0.0 0.0 0.0
0.0 0.0 0.0
0.0 0.0 0.0
0.0 0.0 0.0
0.0 0.0 0.0
0.0 0.0 0.0
0.0 0.0 0.0
0.0 0.0 0.0
0.0 0.0 0.0
0.0 0.0 0.0
0.0 0.0 0.0
0.0 0.0 0.0
0.0 0.0 0.0
0.0 0.0 0.0
0.0 0.0 0.0
0.0 0.0 0.0
0.0 0.0 0.0
0.0 0.0 0.0
0.0 0.0 0.0
0.0 0.0 0.0
0.0 0.0 0.0
0.0 0.0 0.0
0.0 0.0 0.0
0.0 0.0 0.0
0.0 0.0 0.0
0.0 0.0 0.0
0.0 0.0 0.0
0.0 0.0 0.0
0.0 0.0 0.0
0.0 0.0 0.0
0.0 0.0 0.0
0.0 0.0 0.0
0.0 0.0 0.0
0.0 0.0 0.0
0.0 0.0 0.0
0.0 0.0 0.0
0.0 0.0 0.0
0.0 0.0 0.0
0.0 0.0 0.0
0.0 0.0 0.0
0.0 0.0 0.0
0.0 0.0 0.0
0.0 0.0 0.0
0.0 0.0 0.0
0.0 0.0 0.0
0.0 0.0 0.0
0.0 0.0 0.0
0.0 0.0 0.0
0.0 0.0 0.0
0.0 0.0 0.0
0.0 0.0 0.0
0.0 0.0 0.0
0.0 0.0 0.0
0.0 0.0 0.0
0.0 0.0 0.0
0.0 0.0 0.0
0.0 0.0 0.0
0.0 0.0 0.0
0.0 0.0 0.0
0.0 0.0 0.0
0.0 0.0 0.0
0.0 0.0 0.0
0.0 0.0 0.0
0.0 0.0 0.0
0.0 0.0 0.0
0.0 0.0 0.0
0.0 0.0 0.0
0.0 0.0 0.0
0.0 0.0 0.0
0.0 0.0 0.0
0.0 0.0 0.0
0.0 0.0 0.0
0.0 0.0 0.0
0.0 0.0 0.0
0.0 0.0 0.0
0.0 0.0 0.0
0.0 0.0 0.0

VECTORS ROTATION float
0.0 0.0 0.0004966192958241933
-1.804079656386463e-10 0.0 -5.791153579522141e-05
-1.905274424986207e-10 0.0 5.679352476869598e-06
-2.2411950033353126e-10 0.0 -4.3993655011422217e-07
-2.344914092724123e-10 0.0 -1.915942342086219e-15
-2.2411949678010728e-10 0.0 4.399365386535966e-07
-1.9052743516135224e-10 0.0 -5.679352296534676e-06
-1.804079587791111e-10 0.0 5.7911534929712025e-05
0.0 0.0 -0.0004966192924675494
0.0 1.8818450891080884e-10 -5.791923887701601e-05
-1.0957199753070671e-10 8.989519062373512e-11 2.806870757365421e-05
-1.8480637358237984e-10 1.8079764006803835e-11 -1.3557351121189397e-07
-2.061330202228028e-10 2.4652111239818924e-11 1.1198932642727003e-06
-2.145774249697507e-10 -1.6589401888651384e-18 3.117630444432623e-15
-2.0613301782208678e-10 -2.4652114635454156e-11 -1.1198932649176494e-06
-1.8480636833178494e-10 -1.8079765929519576e-11 1.3557346793011737e-07
-1.0957199632862339e-10 -8.989518546966109e-11 -2.8068707323283057e-05
0.0 -1.8818450102491103e-10 5.791923823885576e-05
0.0 2.3522873466098103e-10 5.680089149375036e-06
-3.492746415213632e-11 1.818265269640806e-10 -1.3616946066523269e-07
-1.1787629112991228e-10 8.355849115731063e-11 -7.369437546573868e-07
-1.5090735535663838e-10 3.0470636460024624e-11 6.306685797021238e-07
-1.595023563349462e-10 -2.6991513075391984e-18 -3.112757614927862e-15
-1.509073546254132e-10 -3.0470640921761304e-11 -6.306685800378077e-07
-1.1787629075003064e-10 -8.355849222287976e-11 7.369437725611374e-07
-3.492746513976334e-11 -1.8182652345632858e-10 1.361693811136926e-07
0.0 -2.352287276177987e-10 -5.6800889717090385e-06
0.0 2.5857897392220257e-10 -4.401240141300278e-07
-1.707329622828008e-11 2.1782927688583944e-10 1.1198198056184685e-06
-4.075449977624368e-11 1.3203900785683495e-10 6.306654031847939e-07
-7.414476123678706e-11 5.5936828179049396e-11 6.3808997274477375e-09
-8.280752713948966e-11 -2.8766965661719627e-18 1.1627469083612373e-15
-7.414476140284351e-11 -5.593683246496554e-11 -6.380894248848744e-09
-4.0754500427156406e-11 -1.320390080492946e-10 -6.306654119142077e-07
-1.7073296628620122e-11 -2.1782927232904175e-10 -1.1198197904049392e-06
0.0 -2.5857896755338184e-10 4.401239727246292e-07
0.0 2.634991202896287e-10 6.693145633530996e-15
-2.5865446131494303e-18 2.2881257648265733e-10 1.7789660817235646e-16
-3.769554025014751e-18 1.4867014029700894e-10 -2.038549072222285e-17
-3.814685044336006e-18 6.643176449954975e-11 1.9138437273224874e-15
-3.619215936834094e-18 -2.828162825875111e-18 -3.2025202391200152e-18
-3.800051834119451e-18 -6.643176859204602e-11 -1.9125353148481618e-15
-3.765244619980881e-18 -1.4867014045392316e-10 5.973151503897775e-17
-2.5823432452430422e-18 -2.288125725001731e-10 -1.5208095788550286e-16
0.0 -2.6349911443140097e-10 -6.7019596191690145e-15
0.0 2.585789795484257e-10 4.4012401218609446e-07
1.7073291186744158e-11 2.1782928042876104e-10 -1.119819812222911e-06
4.075449304741885e-11 1.320390084280992e-10 -6.306653934522588e-07
7.414475536351366e-11 5.5936827498861176e-11 -6.380899374664492e-09
8.280752193578867e-11 -2.8940855340123766e-18 -1.1782562196862385e-15
7.41447555447837e-11 -5.593683178808783e-11 6.380893863818022e-09
4.0754493716345775e-11 -1.3203900860828242e-10 6.306654022634942e-07
1.707329159418948e-11 -2.1782927586864714e-10 1.1198197970019539e-06
0.0 -2.585789731693911e-10 -4.4012397064809127e-07
0.0 2.3522874628863517e-10 -5.680089152894975e-06
3.4927459647301176e-11 1.818265344845204e-10 1.361694413379981e-07
1.178762885087233e-10 8.35584907258415e-11 7.369437538605869e-07
1.5090735486842049e-10 3.047063437117541e-11 -6.306685894590517e-07
1.5950235613452062e-10 -2.7148181989143134e-18 3.104133146578759e-15
1.509073541280355e-10 -3.0470638850744176e-11 6.306685897922916e-07
1.1787628814265075e-10 -8.355849178272045e-11 -7.369437717468303e-07
3.492746064373445e-11 -1.818265309589498e-10 -1.361693618339729e-07
0.0 -2.3522873923147383e-10 5.680088975211912e-06
0.0 1.881845222839988e-10 5.791923819976252e-05
1.0957200435450006e-10 8.989519397027228e-11 -2.806870732830718e-05
1.8480637936401082e-10 1.807976065264641e-11 1.3557344763302044e-07
2.0613302636564818e-10 2.46521093791013e-11 -1.1198932365285406e-06
2.1457743006378154e-10 -1.66359397316841e-18 -3.0991596184659828e-15
2.0613302394971298e-10 -2.4652112793488284e-11 1.1198932371563824e-06
1.848063740954125e-10 -1.8079762580728436e-11 -1.3557340436820305e-07
1.0957200314530303e-10 -8.989518879739227e-11 2.806870707805972e-05
0.0 -1.8818451437817715e-10 -5.791923756158482e-05
0.0 0.0 -0.0004966192923897369
1.8040798061924441e-10 0.0 5.7911535280147215e-05
1.9052745477656045e-10 0.0 -5.679352333990279e-06
2.2411950917276292e-10 0.0 4.399364780329484e-07
2.3449141679880974e-10 0.0 1.9156991797954232e-15
2.24119505608402e-10 0.0 -4.399364662912643e-07
1.9052744740303834e-10 0.0 5.679352153505137e-06
1.8040797373368373e-10 0.0 -5.791153441470297e-05
0.0 0.0 0.0004966192890332225
