# vtk DataFile Version 3.0
Kratos Results - Step 4
ASCII
DATASET UNSTRUCTURED_GRID
POINTS 81 float
0.00013385288694104739 -8.486003147653013e-05 0.0
0.2500484965237834 -1.3518779391301872e-05 0.0
0.5000367856797213 -2.0772860215862795e-05 0.0
0.7500179371721355 -2.0285006900557054e-05 0.0
1.0 -2.0142759869561517e-05 0.0
1.2499820628278482 -2.028500690285776e-05 0.0
1.4999632143203436 -2.0772860196821786e-05 0.0
1.749951503475968 -1.3518779502504111e-05 0.0
1.9998661471138615 -8.486003082157966e-05 0.0
6.249719658720437e-05 0.2499882401456285 0.0
0.25005301948684716 0.24998371560316232 -1.3872589624662297e-10
0.500035542497065 0.24998496228214317 -1.978597380057194e-10
0.7500176662274185 0.2499851386679757 -2.4208202753628494e-10
0.9999999999999953 0.24998500376858937 -2.5673660965604815e-10
1.249982333772589 0.24998513866796906 -2.420821509354981e-10
1.4999644575028852 0.24998496228216038 -1.9785997346071497e-10
1.7499469805132402 0.24998371560316426 -1.387261379851448e-10
1.9999375028032267 0.24998824014549284 0.0
6.975309118746335e-05 0.4999877044640832 0.0
0.25005177270878703 0.4999889475527837 -2.1521291972532354e-10
0.5000342942696437 0.49999019576399517 -3.6708733851917947e-10
0.7500173808581383 0.49999010305726077 -4.452043912461629e-10
1.0000000000000013 0.49999021079578715 -4.727188251001865e-10
1.249982619141846 0.49999010305726777 -4.4520458052203286e-10
1.4999657057303821 0.49999019576398607 -3.6708763317166267e-10
1.7499482272911817 0.49998894755278017 -2.1521315227239506e-10
1.9999302469088256 0.4999877044641177 0.0
6.926514074372979e-05 0.7499943079536311 0.0
0.2500515964602847 0.7499945788260272 -2.595699571329543e-10
0.5000343870029443 0.7499948641409965 -4.591891637856331e-10
0.7500171484630505 0.7499950965666377 -5.767931503536222e-10
0.9999999999999944 0.7499951252424881 -6.144644261638433e-10
1.2499828515369538 0.7499950965666348 -5.767933456561873e-10
1.4999656129970396 0.7499948641409979 -4.5918944825403914e-10
1.7499484035397168 0.7499945788260306 -2.595701661593813e-10
1.999930734859243 0.7499943079536204 0.0
6.912293284503224e-05 0.9999999999999983 0.0
0.25005173136505265 1.0000000000000022 -2.7317853276710046e-10
0.5000342792963552 0.999999999999999 -4.900100581920393e-10
0.7500171197893089 1.0000000000000036 -6.208667861783707e-10
1.0 1.0 -6.635555013431553e-10
1.2499828802106794 1.0000000000000036 -6.208669778792544e-10
1.499965720703646 0.999999999999999 -4.900103369608726e-10
1.7499482686349384 1.0000000000000022 -2.7317873328979615e-10
1.999930877067155 0.9999999999999984 0.0
6.926514074377384e-05 1.2500056920463753 0.0
0.25005159646028213 1.2500054211739695 -2.5957000145118133e-10
0.5000343870029416 1.25000513585901 -4.5918922479806774e-10
0.7500171484630541 1.2500049034333596 -5.767931975208446e-10
0.9999999999999944 1.250004874757523 -6.144644653387109e-10
1.24998285153695 1.2500049034333625 -5.767933928280883e-10
1.4999656129970422 1.2500051358590085 -4.591895092326128e-10
1.7499484035397193 1.2500054211739657 -2.5957021041687103e-10
1.9999307348592428 1.2500056920463858 0.0
6.975309117337638e-05 1.500012295535916 0.0
0.2500517727087847 1.500011052447226 -2.1521301323673927e-10
0.5000342942696566 1.500009804235985 -3.6708743244161833e-10
0.7500173808581334 1.500009896942759 -4.452044604737531e-10
1.0000000000000013 1.5000097892042075 -4.727188845436274e-10
1.2499826191418508 1.500009896942752 -4.452046497898012e-10
1.4999657057303692 1.5000098042359942 -3.6708772709228266e-10
1.7499482272911842 1.5000110524472297 -2.1521324566295944e-10
1.9999302469088396 1.5000122955358817 0.0
6.249719671045203e-05 1.7500117598545442 0.0
0.25005301948685676 1.7500162843967546 -1.387259963257551e-10
0.50003554249706 1.750015037717915 -1.978598159367606e-10
0.7500176662274186 1.750014861332012 -2.420820799199693e-10
0.9999999999999953 1.7500149962314249 -2.567366526428174e-10
1.2499823337725888 1.7500148613320188 -2.4208220337303004e-10
1.4999644575028908 1.7500150377178978 -1.9786005148763454e-10
1.7499469805132308 1.7500162843967526 -1.3872623802679689e-10
1.9999375028031035 1.75001175985468 0.0
0.0001338528862533319 2.0000848600306216 0.0
0.2500484965238738 2.0000135187796184 0.0
0.5000367856796941 2.000020772860164 0.0
0.7500179371721496 2.0000202850069284 0.0
1.0 2.000020142759862 0.0
1.2499820628278342 2.000020285006931 0.0
1.499963214320371 2.0000207728601453 0.0
1.749951503475878 2.00001351877973 0.0
1.9998661471145494 2.000084860029967 0.0

CELLS 64 320
4 0 1 10 9
4 1 2 11 10
4 2 3 12 11
4 3 4 13 12
4 4 5 14 13
4 5 6 15 14
4 6 7 16 15
4 7 8 17 16
4 9 10 19 18
4 10 11 20 19
4 11 12 21 20
4 12 13 22 21
4 13 14 23 22
4 14 15 24 23
4 15 16 25 24
4 16 17 26 25
4 18 19 28 27
4 19 20 29 28
4 20 21 30 29
4 21 22 31 30
4 22 23 32 31
4 23 24 33 32
4 24 25 34 33
4 25 26 35 34
4 27 28 37 36
4 28 29 38 37
4 29 30 39 38
4 30 31 40 39
4 31 32 41 40
4 32 33 42 41
4 33 34 43 42
4 34 35 44 43
4 36 37 46 45
4 37 38 47 46
4 38 39 48 47
4 39 40 49 48
4 40 41 50 49
4 41 42 51 50
4 42 43 52 51
4 43 44 53 52
4 45 46 55 54
4 46 47 56 55
4 47 48 57 56
4 48 49 58 57
4 49 50 59 58
4 50 51 60 59
4 51 52 61 60
4 52 53 62 61
4 54 55 64 63
4 55 56 65 64
4 56 57 66 65
4 57 58 67 66
4 58 59 68 67
4 59 60 69 68
4 60 61 70 69
4 61 62 71 70
4 63 64 73 72
4 64 65 74 73
4 65 66 75 74
4 66 67 76 75
4 67 68 77 76
4 68 69 78 77
4 69 70 79 78
4 70 71 80 79

CELL_TYPES 64
9
9
9
9
9
9
9
9
9
9
9
9
9
9
9
9
9
9
9
9
9
9
9
9
9
9
9
9
9
9
9
9
9
9
9
9
9
9
9
9
9
9
9
9
9
9
9
9
9
9
9
9
9
9
9
9
9
9
9
9
9
9
9
9

POINT_DATA 81
VECTORS DISPLACEMENT float
0.00013385288694104739 -8.486003147653013e-05 0.0
4.849652378340016e-05 -1.3518779391301872e-05 0.0
3.6785679721366846e-05 -2.0772860215862795e-05 0.0
1.793717213547703e-05 -2.0285006900557054e-05 0.0
0.0 -2.0142759869561517e-05 0.0
-1.7937172151762502e-05 -2.028500690285776e-05 0.0
-3.678567965629189e-05 -2.0772860196821786e-05 0.0
-4.8496524032003e-05 -1.3518779502504111e-05 0.0
-0.0001338528861385716 -8.486003082157966e-05 0.0
6.249719658720437e-05 -1.1759854371490033e-05 0.0
5.3019486847163266e-05 -1.6284396837691575e-05 -1.3872589624662297e-10
3.554249706510918e-05 -1.5037717856828744e-05 -1.978597380057194e-10
1.7666227418513918e-05 -1.4861332024310607e-05 -2.4208202753628494e-10
-4.654838419642272e-15 -1.4996231410643608e-05 -2.5673660965604815e-10
-1.766622741103734e-05 -1.4861332030939314e-05 -2.420821509354981e-10
-3.554249711478388e-05 -1.5037717839607445e-05 -1.9785997346071497e-10
-5.3019486759779946e-05 -1.628439683574734e-05 -1.387261379851448e-10
-6.249719677323644e-05 -1.1759854507164179e-05 0.0
6.975309118746335e-05 -1.229553591680796e-05 0.0
5.1772708787057494e-05 -1.1052447216253335e-05 -2.1521291972532354e-10
3.429426964378314e-05 -9.80423600482465e-06 -3.6708733851917947e-10
1.738085813827571e-05 -9.896942739215028e-06 -4.452043912461629e-10
1.3270394988225956e-15 -9.789204212836395e-06 -4.727188251001865e-10
-1.7380858154042808e-05 -9.896942732225227e-06 -4.4520458052203286e-10
-3.429426961779146e-05 -9.80423601390556e-06 -3.6708763317166267e-10
-5.1772708818271356e-05 -1.105244721980122e-05 -2.1521315227239506e-10
-6.975309117438963e-05 -1.2295535882276035e-05 0.0
6.926514074372979e-05 -5.692046368865658e-06 0.0
5.159646028467239e-05 -5.421173972863249e-06 -2.595699571329543e-10
3.438700294430809e-05 -5.135859003548429e-06 -4.591891637856331e-10
1.7148463050447906e-05 -4.9034333623596265e-06 -5.767931503536222e-10
-5.49628498849225e-15 -4.874757511841594e-06 -6.144644261638433e-10
-1.7148463046320965e-05 -4.903433365223243e-06 -5.767933456561873e-10
-3.438700296043952e-05 -5.135859002032676e-06 -4.5918944825403914e-10
-5.1596460283251575e-05 -5.421173969345378e-06 -2.595701661593813e-10
-6.926514075708598e-05 -5.692046379520175e-06 0.0
6.912293284503224e-05 -1.6114971591378263e-15 0.0
5.1731365052650716e-05 2.281345565437058e-15 -2.7317853276710046e-10
3.4279296355272775e-05 -9.604840541112017e-16 -4.900100581920393e-10
1.7119789308856827e-05 3.6335663128498116e-15 -6.208667861783707e-10
0.0 0.0 -6.635555013431553e-10
-1.711978932064181e-05 3.4518940733324275e-15 -6.208669778792544e-10
-3.427929635387874e-05 -9.54702715920643e-16 -4.900103369608726e-10
-5.173136506170653e-05 2.3214303735941854e-15 -2.7317873328979615e-10
-6.912293284495853e-05 -1.5691173102544323e-15 0.0
6.926514074377384e-05 5.6920463752545665e-06 0.0
5.1596460282156396e-05 5.421173969402429e-06 -2.5957000145118133e-10
3.43870029415703e-05 5.1358590101489884e-06 -4.5918922479806774e-10
1.7148463054148796e-05 4.903433359565292e-06 -5.767931975208446e-10
-5.498481551880306e-15 4.87475752298636e-06 -6.144644653387109e-10
-1.7148463050049106e-05 4.903433362375426e-06 -5.767933928280883e-10
-3.438700295784345e-05 5.135859008611011e-06 -4.591895092326128e-10
-5.1596460280701566e-05 5.4211739658181925e-06 -2.5957021041687103e-10
-6.926514075714618e-05 5.692046385827876e-06 0.0
6.975309117337638e-05 1.2295535916001848e-05 0.0
5.177270878469697e-05 1.1052447226189904e-05 -2.1521301323673927e-10
3.4294269656664044e-05 9.804235984987136e-06 -3.6708743244161833e-10
1.738085813338605e-05 9.896942759105173e-06 -4.452044604737531e-10
1.4070168463231961e-15 9.789204207474986e-06 -4.727188845436274e-10
-1.73808581492046e-05 9.89694275203054e-06 -4.452046497898012e-10
-3.429426963065281e-05 9.80423599416785e-06 -3.6708772709228266e-10
-5.177270881576973e-05 1.1052447229749247e-05 -2.1521324566295944e-10
-6.97530911603316e-05 1.229553588165652e-05 0.0
6.249719671045203e-05 1.1759854544135808e-05 0.0
5.301948685676321e-05 1.628439675451689e-05 -1.387259963257551e-10
3.554249705991241e-05 1.5037717914809654e-05 -1.978598159367606e-10
1.7666227418612947e-05 1.4861332011872082e-05 -2.420820799199693e-10
-4.663111981924678e-15 1.499623142491421e-05 -2.567366526428174e-10
-1.7666227411122072e-05 1.4861332018715075e-05 -2.4208220337303004e-10
-3.5542497109326406e-05 1.503771789770066e-05 -1.9786005148763454e-10
-5.301948676924253e-05 1.6284396752591506e-05 -1.3872623802679689e-10
-6.249719689646352e-05 1.1759854679978734e-05 0.0
0.0001338528862533319 8.486003062176353e-05 0.0
4.849652387379039e-05 1.351877961858555e-05 0.0
3.678567969416112e-05 2.0772860163867525e-05 0.0
1.793717214960823e-05 2.0285006928468995e-05 0.0
0.0 2.014275986163608e-05 0.0
-1.7937172165841372e-05 2.0285006930858814e-05 0.0
-3.6785679629058334e-05 2.077286014523455e-05 0.0
-4.849652412219681e-05 1.3518779729978224e-05 0.0
-0.00013385288545075217 8.486002996700732e-05 0.0

SCALARS DISPLACEMENT_MAGNITUDE float 1
LOOKUP_TABLE default
0.00015848602551849959
5.034550839255262e-05
4.224568562718275e-05
2.7078102761703613e-05
2.0142759869561517e-05
2.7078102774215022e-05
4.224568556115559e-05
5.0345508661885324e-05
0.00015848602449006305
6.359397578464743e-05
5.546393031442311e-05
3.859277206944364e-05
2.3085813409928978e-05
1.4996231412841282e-05
2.3085813408474775e-05
3.859277210848188e-05
5.546393023032017e-05
6.359397599256006e-05
7.082848250307281e-05
5.293930453513573e-05
3.56681927517159e-05
2.0001092605264667e-05
9.789204224250147e-06
2.0001092615507515e-05
3.566819272922151e-05
5.293930456640247e-05
7.082848248420299e-05
6.949862670667683e-05
5.1880476493756315e-05
3.47684198577824e-05
1.7835735030112128e-05
4.874757550568293e-06
1.783573502693149e-05
3.476841987351296e-05
5.188047649197569e-05
6.949862672086077e-05
6.912293284503224e-05
5.1731365053372e-05
3.427929635877503e-05
1.7119789320115013e-05
6.635555013431553e-10
1.7119789331900002e-05
3.4279296357381006e-05
5.173136506242782e-05
6.912293284495853e-05
6.949862670724398e-05
5.188047649089246e-05
3.4768419856049656e-05
1.7835735032902187e-05
4.874757561713063e-06
1.7835735029733044e-05
3.4768419871917104e-05
5.188047648907107e-05
6.949862672143738e-05
7.08284824890598e-05
5.293930453490174e-05
3.5668192758647834e-05
2.0001092610857622e-05
9.78920421888874e-06
2.00010926211032e-05
3.566819273616208e-05
5.293930456603287e-05
7.082848247025085e-05
6.35939759376953e-05
5.546393029917959e-05
3.859277208724994e-05
2.3085813401997545e-05
1.4996231427111887e-05
2.3085813400670346e-05
3.859277212609184e-05
5.5463930214950885e-05
6.359397614561891e-05
0.0001584860244799965
5.03455085406534e-05
4.224568557792632e-05
2.707810279197411e-05
2.014275986163608e-05
2.7078102804517612e-05
4.2245685512075564e-05
5.034550880984805e-05
0.00015848602345157618

VECTORS REACTION float
0.0 0.0 0.0
0.0 0.0 0.0
0.0 0.0 0.0
0.0 0.0 0.0
0.0 0.0 0.0
0.0 0.0 0.0
0.0 0.0 0.0
0.0 0.0 0.0
0.0 0.0 0.0
0.0 0.0 0.0
0.0 0.0 0.0
0.0 0.0 0.0
0.0 0.0 0.0
0.0 0.0 0.0
0.0 0.0 0.0
0.0 0.0 0.0
0.0 0.0 0.0
0.0 0.0 0.0
0.0 0.0 0.0
0.0 0.0 0.0
0.0 0.0 0.0
0.0 0.0 0.0
0.0 0.0 0.0
0.0 0.0 0.0
0.0 0.0 0.0
0.0 0.0 0.0
0.0 0.0 0.0
0.0 0.0 0.0
0.0 0.0 0.0
0.0 0.0 0.0
0.0 0.0 0.0
0.0 0.0 0.0
0.0 0.0 0.0
0.0 0.0 0.0
0.0 0.0 0.0
0.0 0.0 0.0
0.0 0.0 0.0
0.0 0.0 0.0
0.0 0.0 0.0
0.0 0.0 0.0
0.0 0.0 0.0
0.0 0.0 0.0
0.0 0.0 0.0
0.0 0.0 0.0
0.0 0.0 0.0
0.0 0.0 0.0
0.0 0.0 0.0
0.0 0.0 0.0
0.0 0.0 0.0
0.0 0.0 0.0
0.0 0.0 0.0
0.0 0.0 0.0
0.0 0.0 0.0
0.0 0.0 0.0
0.0 0.0 0.0
0.0 0.0 0.0
0.0 0.0 0.0
0.0 0.0 0.0
0.0 0.0 0.0
0.0 0.0 0.0
0.0 0.0 0.0
0.0 0.0 0.0
0.0 0.0 0.0
0.0 0.0 0.0
0.0 0.0 0.0
0.0 0.0 0.0
0.0 0.0 0.0
0.0 0.0 0.0
0.0 0.0 0.0
0.0 0.0 0.0
0.0 0.0 0.0
0.0 0.0 0.0
0.0 0.0 0.0
0.0 0.0 0.0
0.0 0.0 0.0
0.0 0.0 0.0
0.0 0.0 0.0
0.0 0.0 0.0
0.0 0.0 0.0
0.0 0.0 0.0
0.0 0.0 0.0

VECTORS ROTATION float
0.0 0.0 0.000739661148761795
-6.130565139815011e-10 0.0 -8.624479794393022e-05
-8.068239571107774e-10 0.0 8.457858253619643e-06
-9.942959726751987e-10 0.0 -6.552507594139506e-07
-1.0558300219854803e-09 0.0 -4.169891890646451e-15
-9.942965153699653e-10 0.0 6.552507334906685e-07
-8.068250634087235e-10 0.0 -8.457857853631115e-06
-6.130577771240142e-10 0.0 8.624479603022737e-05
0.0 0.0 -0.0007396611413354112
0.0 6.298238240685094e-10 -8.626188568301325e-05
-4.3933087278213836e-10 3.9057352050056627e-10 4.1807943987863634e-05
-7.653902056992894e-10 1.8204433399288964e-10 -2.0075116820021257e-07
-9.166670306418757e-10 1.2945170953681414e-10 1.6683244693196161e-06
-9.71313749983639e-10 2.4681061021915547e-16 6.8740832772469986e-15
-9.166674354922151e-10 -1.2945121656066864e-10 -1.668324470684522e-06
-7.653908066470664e-10 -1.8204399271608194e-10 2.0075107252817983e-07
-4.39331313471162e-10 -3.9057399294732757e-10 -4.180794343399774e-05
0.0 -6.29825011937404e-10 8.626188426913351e-05
0.0 9.134483905406643e-10 8.45949242904795e-06
-2.247553465132179e-10 7.58810947862602e-10 -2.0207309208583173e-07
-5.336673992505148e-10 4.4767018410209975e-10 -1.0975342678908165e-06
-6.868038381681027e-10 2.0632297805915225e-10 9.395336037778041e-07
-7.335364456670948e-10 4.04416430405227e-16 -6.913731734014296e-15
-6.868039602338351e-10 -2.0632233159681851e-10 -9.395336046144338e-07
-5.336674084798385e-10 -4.476700495092333e-10 1.0975343075132479e-06
-2.2475515649485887e-10 -7.588116033865741e-10 2.020729158673175e-07
0.0 -9.13449469736726e-10 -8.459492035654638e-06
0.0 1.0823101425883904e-09 -6.55666610943869e-07
-1.168265096579152e-10 9.471574947397448e-10 1.6681615284718915e-06
-2.3670585053026e-10 6.375749153300686e-10 9.395265538152355e-07
-3.55310284122646e-10 3.055853519198058e-10 9.513108861451839e-09
-3.89493931674528e-10 4.28388075767494e-16 2.5913709267810704e-15
-3.553102627464092e-10 -3.0558472246531186e-10 -9.513096642376325e-09
-2.367058020264954e-10 -6.375748737531607e-10 -9.395265732575902e-07
-1.168264554115914e-10 -9.47158121772494e-10 -1.6681614948700371e-06
0.0 -1.082311081367251e-09 6.556665190396205e-07
0.0 1.1342357424189316e-09 1.490212687648327e-14
-8.43983148881449e-17 1.009516166982346e-09 2.8845574798435304e-16
-1.3258887877336178e-16 7.035296510940113e-10 -1.1789775076908122e-16
-1.0332588439225919e-16 3.443380067078258e-10 4.2182833338942306e-15
-8.409891410055591e-17 4.206708473353198e-16 1.4663565573479303e-17
-1.0331937811914062e-16 -3.4433738746727556e-10 -4.2458094717530836e-15
-1.3250336770122527e-16 -7.035296242733301e-10 1.3449091860631093e-16
-8.429420141199916e-17 -1.0095167872020467e-09 -3.1148725350818076e-16
0.0 -1.1342366381548164e-09 -1.4915063974860663e-14
0.0 1.082310343161106e-09 6.556666061877486e-07
1.1682630723266737e-10 9.47157626563283e-10 -1.6681615430980567e-06
2.367056476266439e-10 6.375749036782747e-10 -9.395265322965465e-07
3.553101322574392e-10 3.0558529029713655e-10 -9.513108046054303e-09
3.8949379909951716e-10 4.2841880595295757e-16 -2.5850919261343915e-15
3.55310110795848e-10 -3.0558466090679625e-10 9.513095738982004e-09
2.3670559917868487e-10 -6.375748623015573e-10 9.395265517825485e-07
1.1682625331666674e-10 -9.471582535318738e-10 1.6681615094591547e-06
0.0 -1.0823112816016118e-09 -6.556665143804675e-07
0.0 9.134488555961803e-10 -8.459492437084514e-06
2.2475518318127712e-10 7.588111465658075e-10 2.020730494306611e-07
5.336673476210108e-10 4.476700838881146e-10 1.0975342659871792e-06
6.868038233813854e-10 2.063228995481906e-10 -9.395336253910655e-07
7.335364340560032e-10 4.0451840259652384e-16 6.881343182513943e-15
6.868039452985275e-10 -2.063222530211004e-10 9.395336263161525e-07
5.336673564638175e-10 -4.47669949768136e-10 -1.0975343057161084e-06
2.2475499309321923e-10 -7.58811802155243e-10 -2.0207287316770657e-07
0.0 -9.134499340469586e-10 8.4594920437469e-06
0.0 6.29824351544166e-10 8.626188418423357e-05
4.3933106953399434e-10 3.905736404193959e-10 -4.180794344526058e-05
7.653904047705079e-10 1.8204417800040449e-10 2.0075102767666536e-07
9.166671839622646e-10 1.2945164512780932e-10 -1.6683244079183052e-06
9.713138819602687e-10 2.4689755024317483e-16 -6.88178418933559e-15
9.166675888981139e-10 -1.2945115184856365e-10 1.668324409292189e-06
7.653910056623998e-10 -1.8204383700176343e-10 -2.0075093209117215e-07
4.393315098892623e-10 -3.905741131623803e-10 4.1807942891363e-05
0.0 -6.298255390516413e-10 -8.626188277023355e-05
0.0 0.0 -0.0007396611411629101
6.13057048774198e-10 0.0 8.624479680573833e-05
8.068243162742957e-10 0.0 -8.457857937330818e-06
9.942962115548303e-10 0.0 6.552505996063306e-07
1.0558302122414456e-09 0.0 4.227124901057738e-15
9.94296754534315e-10 0.0 -6.552505735979736e-07
8.068254231712181e-10 0.0 8.457857537321735e-06
6.130583118672289e-10 0.0 -8.624479489246439e-05
0.0 0.0 0.0007396611337364257
