# vtk DataFile Version 3.0
Kratos Results - Step 3
ASCII
DATASET UNSTRUCTURED_GRID
POINTS 81 float
8.991659770151861e-05 -5.700624187326892e-05 0.0
0.2500325789503593 -9.082069839525578e-06 0.0
0.5000247122110248 -1.3955252550884122e-05 0.0
0.7500120499893135 -1.3627547623312638e-05 0.0
1.0 -1.3531983548209063e-05 0.0
1.2499879500106792 -1.3627547624364662e-05 0.0
1.4999752877890047 -1.3955252542261979e-05 0.0
1.7499674210495282 -9.082069889948289e-06 0.0
1.9999100834026613 -5.700624157673027e-05 0.0
4.198591073757276e-05 0.2499921002193462 0.0
0.25003561824018705 0.2499890602167826 -3.935099858173818e-11
0.5000238771221835 0.249989897538739 -4.704631367288789e-11
0.7500118680420372 0.2499900160521616 -5.4660574386491285e-11
0.9999999999999979 0.24998992541439272 -5.70109389991059e-11
1.2499881319579662 0.2499900160521586 -5.466057355261804e-11
1.4999761228777941 0.24998989753874676 -4.704631213593025e-11
1.7499643817598525 0.2499890602167835 -3.935099706864786e-11
1.9999580140891784 0.24999210021928492 0.0
4.685991192014559e-05 0.49999174013144504 0.0
0.2500347808735251 0.4999925751778838 -5.428505139383536e-11
0.5000230388561532 0.49999341343659764 -8.757994657458715e-11
0.7500116763996754 0.4999933511246191 -9.99994836802672e-11
1.0000000000000007 0.49999342350677967 -1.045256984628288e-10
1.2499883236003175 0.49999335112462234 -9.999948239760781e-11
1.4999769611438585 0.4999934134365936 -8.757994453278865e-11
1.749965219126461 0.49999257517788215 -5.428504979682015e-11
1.999953140088086 0.4999917401314607 0.0
4.6532163164911935e-05 0.7499961762062267 0.0
0.2500346624220748 0.7499963581208672 -6.139791254989304e-11
0.5000231011801208 0.74999654973872 -1.05283987808868e-10
0.7500115203333723 0.7499967058188105 -1.2839129672826093e-10
0.9999999999999976 0.7499967250681103 -1.350625208891585e-10
1.2499884796666296 0.7499967058188092 -1.2839129540371347e-10
1.4999768988198718 0.7499965497387207 -1.0528398587795034e-10
1.7499653375779258 0.7499963581208686 -6.13979111467041e-11
1.9999534678368291 0.7499961762062219 0.0
4.6436616748546914e-05 0.9999999999999993 0.0
0.2500347530622721 1.000000000000001 -6.303919798427144e-11
0.5000230288123724 0.9999999999999997 -1.1085233901659125e-10
0.7500115010850243 1.0000000000000016 -1.3739343357697273e-10
1.0 1.0 -1.4546090639162054e-10
1.24998849891497 1.0000000000000016 -1.373934322928572e-10
1.4999769711876283 0.9999999999999997 -1.1085233716874715e-10
1.7499652469377238 1.0000000000000009 -6.303919665866237e-11
1.9999535633832515 0.9999999999999993 0.0
4.653216316491423e-05 1.2500038237937763 0.0
0.2500346624220736 1.2500036418791312 -6.13979138228656e-11
0.5000231011801197 1.250003450261283 -1.052839896180572e-10
0.7500115203333739 1.2500032941811883 -1.2839129848320711e-10
0.9999999999999976 1.2500032749318946 -1.350625225289165e-10
1.249988479666628 1.2500032941811894 -1.2839129716610472e-10
1.499976898819873 1.2500034502612822 -1.0528398769657463e-10
1.749965337577927 1.2500036418791298 -6.139791242681754e-11
1.9999534678368291 1.250003823793781 0.0
4.685991191377934e-05 1.5000082598685547 0.0
0.25003478087352404 1.500007424822121 -5.4285053822293754e-11
0.500023038856159 1.5000065865633934 -8.757994966632631e-11
0.7500116763996731 1.5000066488753898 -9.999948631038772e-11
1.0000000000000007 1.5000065764932178 -1.0452570081395839e-10
1.2499883236003195 1.5000066488753867 -9.999948503216843e-11
1.4999769611438527 1.5000065865633974 -8.75799476327071e-11
1.7499652191264619 1.5000074248221225 -5.4285052232883455e-11
1.999953140088092 1.500008259868539 0.0
4.1985910793294305e-05 1.7500078997807318 0.0
0.2500356182401913 1.7500109397831798 -3.93510013968185e-11
0.5000238771221811 1.750010102461287 -4.704631632395604e-11
0.7500118680420372 1.7500099839478327 -5.46605763252718e-11
0.999999999999998 1.7500100745856138 -5.701094069543605e-11
1.249988131957966 1.7500099839478358 -5.466057549324352e-11
1.4999761228777966 1.7500101024612795 -4.704631478915534e-11
1.7499643817598483 1.750010939783179 -3.935099988745635e-11
1.9999580140891227 1.7500078997807933 0.0
8.991659739046899e-05 2.000057006241487 0.0
0.25003257895040026 2.0000090820699428 0.0
0.5000247122110125 2.000013955252528 0.0
0.7500120499893197 2.000013627547636 0.0
1.0 2.000013531983545 0.0
1.249987950010673 2.000013627547637 0.0
1.4999752877890167 2.000013955252519 0.0
1.7499674210494873 2.000009082069993 0.0
1.9999100834029724 2.0000570062411898 0.0

CELLS 64 320
4 0 1 10 9
4 1 2 11 10
4 2 3 12 11
4 3 4 13 12
4 4 5 14 13
4 5 6 15 14
4 6 7 16 15
4 7 8 17 16
4 9 10 19 18
4 10 11 20 19
4 11 12 21 20
4 12 13 22 21
4 13 14 23 22
4 14 15 24 23
4 15 16 25 24
4 16 17 26 25
4 18 19 28 27
4 19 20 29 28
4 20 21 30 29
4 21 22 31 30
4 22 23 32 31
4 23 24 33 32
4 24 25 34 33
4 25 26 35 34
4 27 28 37 36
4 28 29 38 37
4 29 30 39 38
4 30 31 40 39
4 31 32 41 40
4 32 33 42 41
4 33 34 43 42
4 34 35 44 43
4 36 37 46 45
4 37 38 47 46
4 38 39 48 47
4 39 40 49 48
4 40 41 50 49
4 41 42 51 50
4 42 43 52 51
4 43 44 53 52
4 45 46 55 54
4 46 47 56 55
4 47 48 57 56
4 48 49 58 57
4 49 50 59 58
4 50 51 60 59
4 51 52 61 60
4 52 53 62 61
4 54 55 64 63
4 55 56 65 64
4 56 57 66 65
4 57 58 67 66
4 58 59 68 67
4 59 60 69 68
4 60 61 70 69
4 61 62 71 70
4 63 64 73 72
4 64 65 74 73
4 65 66 75 74
4 66 67 76 75
4 67 68 77 76
4 68 69 78 77
4 69 70 79 78
4 70 71 80 79

CELL_TYPES 64
9
9
9
9
9
9
9
9
9
9
9
9
9
9
9
9
9
9
9
9
9
9
9
9
9
9
9
9
9
9
9
9
9
9
9
9
9
9
9
9
9
9
9
9
9
9
9
9
9
9
9
9
9
9
9
9
9
9
9
9
9
9
9
9

POINT_DATA 81
VECTORS DISPLACEMENT float
8.991659770151861e-05 -5.700624187326892e-05 0.0
3.257895035931852e-05 -9.082069839525578e-06 0.0
2.4712211024811442e-05 -1.3955252550884122e-05 0.0
1.2049989313426298e-05 -1.3627547623312638e-05 0.0
0.0 -1.3531983548209063e-05 0.0
-1.2049989320761179e-05 -1.3627547624364662e-05 0.0
-2.471221099528619e-05 -1.3955252542261979e-05 0.0
-3.257895047183553e-05 -9.082069889948289e-06 0.0
-8.991659733866205e-05 -5.700624157673027e-05 0.0
4.198591073757276e-05 -7.899780653788893e-06 0.0
3.5618240187060565e-05 -1.0939783217381436e-05 -3.935099858173818e-11
2.3877122183564703e-05 -1.010246126102504e-05 -4.704631367288789e-11
1.1868042037262059e-05 -9.983947838418354e-06 -5.4660574386491285e-11
-2.114152144611032e-15 -1.0074585607296134e-05 -5.70109389991059e-11
-1.1868042033806696e-05 -9.983947841417357e-06 -5.466057355261804e-11
-2.3877122205961247e-05 -1.0102461253241118e-05 -4.704631213593025e-11
-3.561824014746012e-05 -1.0939783216511103e-05 -3.935099706864786e-11
-4.198591082163905e-05 -7.899780715091518e-06 0.0
4.685991192014559e-05 -8.259868554961792e-06 0.0
3.4780873525086265e-05 -7.424822116209685e-06 -5.428505139383536e-11
2.30388561532246e-05 -6.586563402339201e-06 -8.757994657458715e-11
1.1676399675360502e-05 -6.6488753808621585e-06 -9.99994836802672e-11
6.423780041013744e-16 -6.5764932203480924e-06 -1.045256984628288e-10
-1.1676399682511896e-05 -6.648875377682775e-06 -9.999948239760781e-11
-2.303885614152172e-05 -6.586563406416506e-06 -8.757994453278865e-11
-3.4780873539066205e-05 -7.424822117826306e-06 -5.428504979682015e-11
-4.685991191418612e-05 -8.259868539322253e-06 0.0
4.6532163164911935e-05 -3.823793773335412e-06 0.0
3.466242207480917e-05 -3.641879132870533e-06 -6.139791254989304e-11
2.31011801208754e-05 -3.450261279958108e-06 -1.05283987808868e-10
1.152033337226165e-05 -3.2941811895112255e-06 -1.2839129672826093e-10
-2.4974168792641553e-15 -3.2749318896790237e-06 -1.350625208891585e-10
-1.1520333370324525e-05 -3.2941811908451304e-06 -1.2839129540371347e-10
-2.3101180128151694e-05 -3.4502612792984335e-06 -1.0528398587795034e-10
-3.466242207421442e-05 -3.641879131341419e-06 -6.13979111467041e-11
-4.65321631709144e-05 -3.823793778078982e-06 0.0
4.6436616748546914e-05 -7.051806887007321e-16 0.0
3.4753062272061325e-05 1.118600256863882e-15 -6.303919798427144e-11
2.3028812372381998e-05 -3.6460691827294533e-16 -1.1085233901659125e-10
1.1501085024364254e-05 1.557842720483811e-15 -1.3739343357697273e-10
0.0 0.0 -1.4546090639162054e-10
-1.1501085029832719e-05 1.5891649652325452e-15 -1.373934322928572e-10
-2.3028812371774065e-05 -3.8656446596411424e-16 -1.1085233716874715e-10
-3.475306227612172e-05 9.433025470143264e-16 -6.303919665866237e-11
-4.643661674849446e-05 -6.656196097228681e-16 0.0
4.653216316491423e-05 3.8237937762106715e-06 0.0
3.466242207362736e-05 3.641879131190477e-06 -6.13979138228656e-11
2.310118011971679e-05 3.450261282998724e-06 -1.052839896180572e-10
1.1520333373945745e-05 3.294181188284947e-06 -1.2839129848320711e-10
-2.4953295111976758e-15 3.2749318945983047e-06 -1.350625225289165e-10
-1.1520333372000158e-05 3.2941811894153507e-06 -1.2839129716610472e-10
-2.3101180126979787e-05 3.4502612822410797e-06 -1.0528398769657463e-10
-3.466242207304205e-05 3.6418791297993753e-06 -6.139791242681754e-11
-4.653216317087341e-05 3.823793780978701e-06 0.0
4.685991191377934e-05 8.259868554616833e-06 0.0
3.478087352404343e-05 7.424822120849321e-06 -5.4285053822293754e-11
2.3038856158962033e-05 6.586563393405582e-06 -8.757994966632631e-11
1.1676399673186644e-05 6.648875389891193e-06 -9.999948631038772e-11
6.305345116876045e-16 6.576493217811324e-06 -1.0452570081395839e-10
-1.1676399680394349e-05 6.648875386694609e-06 -9.999948503216843e-11
-2.303885614730336e-05 6.586563397401442e-06 -8.75799476327071e-11
-3.47808735381649e-05 7.424822122428324e-06 -5.4285052232883455e-11
-4.685991190783127e-05 8.259868539003412e-06 0.0
4.1985910793294305e-05 7.89978073186788e-06 0.0
3.561824019134247e-05 1.0939783179833557e-05 -3.93510013968185e-11
2.3877122181145523e-05 1.0102461287171637e-05 -4.704631632395604e-11
1.1868042037278471e-05 9.983947832749163e-06 -5.46605763252718e-11
-2.0327701761236926e-15 1.0074585613734413e-05 -5.701094069543605e-11
-1.1868042033960926e-05 9.983947835751742e-06 -5.466057549324352e-11
-2.387712220340613e-05 1.0102461279423281e-05 -4.704631478915534e-11
-3.561824015174234e-05 1.0939783179003402e-05 -3.935099988745635e-11
-4.198591087736859e-05 7.899780793233116e-06 0.0
8.991659739046899e-05 5.700624148665924e-05 0.0
3.2578950400268764e-05 9.082069942561427e-06 0.0
2.4712211012562685e-05 1.3955252527698653e-05 0.0
1.2049989319744771e-05 1.3627547636018415e-05 0.0
0.0 1.3531983544765452e-05 0.0
-1.2049989327106934e-05 1.3627547637136128e-05 0.0
-2.4712210983227003e-05 1.3955252518907219e-05 0.0
-3.257895051273562e-05 9.082069992980986e-06 0.0
-8.991659702751718e-05 5.7006241189941184e-05 0.0

SCALARS DISPLACEMENT_MAGNITUDE float 1
LOOKUP_TABLE default
0.00010646457699502864
3.382117678444913e-05
2.8380317959701753e-05
1.8190994933739657e-05
1.3531983548209063e-05
1.8190994939386504e-05
2.8380317929752884e-05
3.3821176906373584e-05
0.0001064645765297905
4.2722631412887065e-05
3.726040647749277e-05
2.592637049996784e-05
1.5509017900610783e-05
1.0074585607457443e-05
1.550901789989723e-05
2.5926370517561055e-05
3.7260406439382095e-05
4.272263150683908e-05
4.7582315766564466e-05
3.556454901483147e-05
2.396188035838756e-05
1.343673521429196e-05
6.57649322117875e-06
1.343673521893321e-05
2.3961880348256235e-05
3.556454902884086e-05
4.758231575798058e-05
4.668900949502983e-05
3.4853217752661314e-05
2.335741479462553e-05
1.1982057867238807e-05
3.2749318924641023e-06
1.1982057865743054e-05
2.3357414801724558e-05
3.4853217751910036e-05
4.668900950140063e-05
4.6436616748546914e-05
3.47530622721185e-05
2.30288123726488e-05
1.1501085025184913e-05
1.4546090639162054e-10
1.1501085030653378e-05
2.3028812372040867e-05
3.4753062276178894e-05
4.643661674849446e-05
4.66890094952676e-05
3.485321775131042e-05
2.335741479392878e-05
1.198205786852087e-05
3.2749318973833834e-06
1.1982057866961033e-05
2.3357414801000182e-05
3.485321775058295e-05
4.6689009501597256e-05
4.758231576023499e-05
3.556454901478023e-05
2.3961880361448336e-05
1.343673521687072e-05
6.576493218641981e-06
1.343673522155239e-05
2.396188035133713e-05
3.556454902892018e-05
4.758231575166687e-05
4.272263148208521e-05
3.726040647056178e-05
2.592637050792815e-05
1.5509017896973793e-05
1.0074585613895722e-05
1.5509017896368005e-05
2.5926370525410032e-05
3.726040643246319e-05
4.272263157605665e-05
0.00010646457652531664
3.382117685156373e-05
2.83803179376353e-05
1.8190994947443478e-05
1.3531983544765452e-05
1.8190994953157606e-05
2.8380317907768255e-05
3.382117697343902e-05
0.00010646457605990201

VECTORS REACTION float
0.0 0.0 0.0
0.0 0.0 0.0
0.0 0.0 0.0
0.0 0.0 0.0
0.0 0.0 0.0
0.0 0.0 0.0
0.0 0.0 0.0
0.0 0.0 0.0
0.0 0.0 0.0
0.0 0.0 0.0
0.0 0.0 0.0
0.0 0.0 0.0
0.0 0.0 0.0
0.0 0.0 0.0
0.0 0.0 0.0
0.0 0.0 0.0
0.0 0.0 0.0
0.0 0.0 0.0
0.0 0.0 0.0
0.0 0.0 0.0
0.0 0.0 0.0
0.0 0.0 0.0
0.0 0.0 0.0
0.0 0.0 0.0
0.0 0.0 0.0
0.0 0.0 0.0
0.0 0.0 0.0
0.0 0.0 0.0
0.0 0.0 0.0
0.0 0.0 0.0
0.0 0.0 0.0
0.0 0.0 0.0
0.0 0.0 0.0
0.0 0.0 0.0
0.0 0.0 0.0
0.0 0.0 0.0
0.0 0.0 0.0
0.0 0.0 0.0
0.0 0.0 0.0
0.0 0.0 0.0
0.0 0.0 0.0
0.0 0.0 0.0
0.0 0.0 0.0
0.0 0.0 0.0
0.0 0.0 0.0
0.0 0.0 0.0
0.0 0.0 0.0
0.0 0.0 0.0
0.0 0.0 0.0
0.0 0.0 0.0
0.0 0.0 0.0
0.0 0.0 0.0
0.0 0.0 0.0
0.0 0.0 0.0
0.0 0.0 0.0
0.0 0.0 0.0
0.0 0.0 0.0
0.0 0.0 0.0
0.0 0.0 0.0
0.0 0.0 0.0
0.0 0.0 0.0
0.0 0.0 0.0
0.0 0.0 0.0
0.0 0.0 0.0
0.0 0.0 0.0
0.0 0.0 0.0
0.0 0.0 0.0
0.0 0.0 0.0
0.0 0.0 0.0
0.0 0.0 0.0
0.0 0.0 0.0
0.0 0.0 0.0
0.0 0.0 0.0
0.0 0.0 0.0
0.0 0.0 0.0
0.0 0.0 0.0
0.0 0.0 0.0
0.0 0.0 0.0
0.0 0.0 0.0
0.0 0.0 0.0
0.0 0.0 0.0

VECTORS ROTATION float
0.0 0.0 0.000496867639287774
-1.8063889687169448e-10 0.0 -5.794048986408709e-05
-1.9080711550320634e-10 0.0 5.6821919029525725e-06
-2.2445804576652687e-10 0.0 -4.401565565928991e-07
-2.3484869964117843e-10 0.0 -1.8838367551928308e-15
-2.2445804220679822e-10 0.0 4.4015654502393806e-07
-1.9080710813154578e-10 0.0 -5.68219172218763e-06
-1.8063888999094698e-10 0.0 5.794048899766239e-05
0.0 0.0 -0.0004968676359279011
0.0 1.8842279761485872e-10 -5.794820065187429e-05
-1.0972759928684656e-10 9.002960970650844e-11 2.808274563424028e-05
-1.850738068497958e-10 1.8129802232162962e-11 -1.3564050340649983e-07
-2.06444873714648e-10 2.4693205464901534e-11 1.1204535367554675e-06
-2.1490565209992505e-10 -1.6638756034965429e-18 3.1103046484692707e-15
-2.0644487129143208e-10 -2.4693208876796985e-11 -1.1204535374316861e-06
-1.850738015800279e-10 -1.8129804165229466e-11 1.3564046004371118e-07
-1.0972759806771648e-10 -9.002960453222117e-11 -2.8082745383724165e-05
0.0 -1.884227897054951e-10 5.794820001300755e-05
0.0 2.355563408958516e-10 5.682929312021639e-06
-3.4996556027963685e-11 1.8209093649727016e-10 -1.362370490326451e-07
-1.180573199141854e-10 8.37012662581338e-11 -7.373122325455347e-07
-1.5113936922698945e-10 3.0531786438909265e-11 6.309841081263732e-07
-1.597491117803764e-10 -2.7216713928434496e-18 -3.125098029529058e-15
-1.5113936848175565e-10 -3.0531790919864904e-11 -6.309841085230348e-07
-1.180573195349127e-10 -8.370126731532924e-11 7.373122504641101e-07
-3.4996557020500087e-11 -1.8209093297094035e-10 1.3623696944964013e-07
0.0 -2.3555633382332914e-10 -5.6829291341457696e-06
0.0 2.5895692143873254e-10 -4.4034420839331096e-07
-1.710853750324535e-11 2.1815491613578442e-10 1.1203800046241883e-06
-4.082902022209462e-11 1.3224922493873507e-10 6.309809285108946e-07
-7.426294187661649e-11 5.603298346915287e-11 6.38409720282721e-09
-8.293769781840328e-11 -2.8967577482512726e-18 1.1908792304683352e-15
-7.4262942062663e-11 -5.603298776871215e-11 -6.384091687975296e-09
-4.082902089453473e-11 -1.3224922512003546e-10 -6.309809372510665e-07
-1.710853792054265e-11 -2.1815491156520676e-10 -1.1203799894009187e-06
0.0 -2.58956915052314e-10 4.403441668421547e-07
0.0 2.6389144542765143e-10 6.678328791205337e-15
-2.5836990419300665e-18 2.2915795017945663e-10 1.5025840818849918e-16
-3.758248986179833e-18 1.4890371675443992e-10 -4.921872204239114e-17
-3.795593923505802e-18 6.654195889951783e-11 1.908456618216913e-15
-3.615517077184228e-18 -2.830528755477645e-18 -3.249558633094845e-18
-3.8159148809503155e-18 -6.654196299238083e-11 -1.912765674569466e-15
-3.782110108997551e-18 -1.4890371690416584e-10 -3.3382559429523004e-18
-2.600943403805937e-18 -2.29157946196651e-10 -1.1564667288445257e-16
0.0 -2.638914395790105e-10 -6.693581524984305e-15
0.0 2.5895692706319003e-10 4.403442064557947e-07
1.7108532462040787e-11 2.1815491966969627e-10 -1.1203800111917908e-06
4.0829013502290733e-11 1.3224922549271406e-10 -6.309809187850278e-07
7.426293601494682e-11 5.603298279272415e-11 -6.384096705642175e-09
8.293769262284248e-11 -2.8797379976996494e-18 -1.1820479907897546e-15
7.426293619345692e-11 -5.6032987072455495e-11 6.384091216286535e-09
4.0829014156801005e-11 -1.3224922567469066e-10 6.309809275680044e-07
1.7108532862485888e-11 -2.181549151189479e-10 1.1203799959499325e-06
0.0 -2.589569207094577e-10 -4.4034416487287577e-07
0.0 2.355563525290949e-10 -5.682929315566225e-06
3.4996551509171325e-11 1.8209094400954995e-10 1.3623702968943787e-07
1.1805731727925444e-10 8.370126580950144e-11 7.373122317504017e-07
1.5113936872901842e-10 3.053178434840832e-11 -6.309841179485816e-07
1.597491115857275e-10 -2.7124871339310143e-18 3.1260584356091592e-15
1.5113936800053816e-10 -3.0531788811914595e-11 6.309841183685969e-07
1.1805731692171485e-10 -8.370126685747958e-11 -7.373122496511824e-07
3.4996552511999456e-11 -1.820909405006868e-10 -1.3623695008513746e-07
0.0 -2.3555634549334925e-10 5.682929137725064e-06
0.0 1.8842281101463123e-10 5.794819997390612e-05
1.0972760610414119e-10 9.002961304869157e-11 -2.80827453886921e-05
1.8507381262343718e-10 1.812979885899682e-11 1.356404398163974e-07
2.0644487984570312e-10 2.4693203595141434e-11 -1.1204535090479123e-06
2.149056571858829e-10 -1.6591899197940064e-18 -3.085767265839028e-15
2.0644487743001884e-10 -2.4693207004082557e-11 1.1204535096487638e-06
1.8507380737161282e-10 -1.8129800786390767e-11 -1.3564039644311853e-07
1.0972760490182074e-10 -9.002960787731339e-11 2.8082745138192688e-05
0.0 -1.884228031260395e-10 -5.79481993350211e-05
0.0 0.0 -0.0004968676358499458
1.806389118856894e-10 0.0 5.794048934866996e-05
1.9080712778427443e-10 0.0 -5.682191759740017e-06
2.244580545873706e-10 0.0 4.4015648450348766e-07
2.348487071485293e-10 0.0 1.8598304456265764e-15
2.2445805103478738e-10 0.0 -4.4015647266200416e-07
1.9080712041684012e-10 0.0 5.6821915790816375e-06
1.8063890501894628e-10 0.0 -5.794048848226553e-05
0.0 0.0 0.0004968676324900986
