# vtk DataFile Version 3.0
Kratos Results - Step 6
ASCII
DATASET UNSTRUCTURED_GRID
POINTS 81 float
0.00015581736291612195 -9.878425872041878e-05 0.0
0.2500564535869065 -1.5736493822278648e-05 0.0
0.5000428209745379 -2.418075011581127e-05 0.0
0.7500208800629594 -2.3612830887955654e-05 0.0
1.0 -2.344724944679305e-05 0.0
1.2499791199370185 -2.361283089111019e-05 0.0
1.4999571790255504 -2.418075009004327e-05 0.0
1.749943546412757 -1.5736493972920422e-05 0.0
1.9998441826381697 -9.878425783354155e-05 0.0
7.27500318356464e-05 0.24998631043749642 0.0
0.2500617179116142 0.24998104397254553 -3.2498461815643936e-10
0.5000413737689062 0.2499824953483384 -5.198836971047885e-10
0.7500205646043476 0.249982700656378 -6.560657352847273e-10
0.9999999999999937 0.2499825436365387 -7.025955864867744e-10
1.2499794353956626 0.24998270065636902 -6.560657708892827e-10
1.4999586262310267 0.24998249534836173 -5.198837638009077e-10
1.749938282088504 0.24998104397254817 -3.249846863096515e-10
1.9999272499679128 0.24998631043731304 0.0
8.119674601598518e-05 0.49998568706177804 0.0
0.2500602664015505 0.49998713414009555 -5.447168448926561e-10
0.5000399205073399 0.49998858737969815 -9.629498164472722e-10
0.750020232358762 0.49998847949116726 -1.2095583805364574e-09
1.0000000000000018 0.49998860490197067 -1.296081509685229e-09
1.2499797676412165 0.4999884794911767 -1.2095584363273294e-09
1.4999600794926953 0.4999885873796858 -9.629499023264023e-10
1.7499397335984073 0.4999871341400907 -5.447169120462627e-10
1.9999188032540016 0.4999856870618247 0.0
8.062869516461705e-05 0.7499933740281935 0.0
0.25006006127960734 0.7499936893888025 -6.819207583525431e-10
0.5000400284318696 0.7499940215607916 -1.2303764423443605e-09
0.7500199617885467 0.7499942921724103 -1.5738533889158316e-09
0.9999999999999926 0.7499943255658418 -1.689223258983511e-09
1.249980038211459 0.7499942921724064 -1.5738534482253015e-09
1.4999599715681085 0.7499940215607938 -1.230376528380304e-09
1.7499399387203947 0.7499936893888073 -6.819208213147864e-10
1.9999193713048171 0.749993374028179 0.0
8.0463166752272e-05 0.999999999999998 0.0
0.2500602183067396 1.0000000000000033 -7.273618008716906e-10
0.5000399030643449 0.9999999999999987 -1.3221208984139104e-09
0.7500199283979726 1.0000000000000047 -1.698876582205106e-09
1.0 1.0 -1.8263690910963936e-09
1.2499800716020115 1.0000000000000049 -1.698876641274315e-09
1.499960096935657 0.9999999999999988 -1.3221209839648812e-09
1.749939781693248 1.0000000000000033 -7.273618621909942e-10
1.9999195368332479 0.999999999999998 0.0
8.062869516466536e-05 1.2500066259718152 0.0
0.2500600612796039 1.2500063106111927 -6.8192077749538e-10
0.5000400284318658 1.2500059784392175 -1.230376468716797e-09
0.7500199617885518 1.2500057078275857 -1.5738534105026419e-09
0.9999999999999926 1.2500056744341732 -1.6892232774178108e-09
1.2499800382114539 1.2500057078275895 -1.5738534698185098e-09
1.499959971568112 1.2500059784392155 -1.2303765547249654e-09
1.7499399387203982 1.2500063106111883 -6.81920840414498e-10
1.9999193713048171 1.2500066259718297 0.0
8.119674599701987e-05 1.500014312938221 0.0
0.2500602664015473 1.500012865859918 -5.447168836091031e-10
0.5000399205073573 1.500011412620275 -9.629498581282574e-10
0.7500202323587555 1.5000115205088598 -1.2095584122452923e-09
1.0000000000000018 1.500011395098022 -1.2960815369119255e-09
1.249979767641223 1.5000115205088502 -1.2095584680696706e-09
1.499960079492678 1.5000114126202873 -9.629499440064394e-10
1.7499397335984106 1.5000128658599228 -5.447169506588363e-10
1.9999188032540207 1.5000143129381744 0.0
7.275003200246122e-05 1.7500136895627372 0.0
0.2500617179116271 1.750018956027342 -3.249846608357242e-10
0.500041373768899 1.7500175046517403 -5.198837318148353e-10
0.7500205646043479 1.7500172993436052 -6.560657588874542e-10
0.9999999999999937 1.7500174563634807 -7.025956060526078e-10
1.2499794353956626 1.7500172993436143 -6.560657945407152e-10
1.4999586262310338 1.7500175046517168 -5.198837985869038e-10
1.7499382820884912 1.7500189560273394 -3.249847289565484e-10
1.9999272499677463 1.7500136895629206 0.0
0.00015581736198546994 2.0000987842575633 0.0
0.2500564535870287 2.00001573649413 0.0
0.500042820974501 2.000024180750046 0.0
0.7500208800629785 2.000023612830926 0.0
1.0 2.0000234472494363 0.0
1.2499791199369994 2.000023612830929 0.0
1.499957179025587 2.0000241807500196 0.0
1.749943546412635 2.0000157364942805 0.0
1.9998441826391005 2.000098784256677 0.0

CELLS 64 320
4 0 1 10 9
4 1 2 11 10
4 2 3 12 11
4 3 4 13 12
4 4 5 14 13
4 5 6 15 14
4 6 7 16 15
4 7 8 17 16
4 9 10 19 18
4 10 11 20 19
4 11 12 21 20
4 12 13 22 21
4 13 14 23 22
4 14 15 24 23
4 15 16 25 24
4 16 17 26 25
4 18 19 28 27
4 19 20 29 28
4 20 21 30 29
4 21 22 31 30
4 22 23 32 31
4 23 24 33 32
4 24 25 34 33
4 25 26 35 34
4 27 28 37 36
4 28 29 38 37
4 29 30 39 38
4 30 31 40 39
4 31 32 41 40
4 32 33 42 41
4 33 34 43 42
4 34 35 44 43
4 36 37 46 45
4 37 38 47 46
4 38 39 48 47
4 39 40 49 48
4 40 41 50 49
4 41 42 51 50
4 42 43 52 51
4 43 44 53 52
4 45 46 55 54
4 46 47 56 55
4 47 48 57 56
4 48 49 58 57
4 49 50 59 58
4 50 51 60 59
4 51 52 61 60
4 52 53 62 61
4 54 55 64 63
4 55 56 65 64
4 56 57 66 65
4 57 58 67 66
4 58 59 68 67
4 59 60 69 68
4 60 61 70 69
4 61 62 71 70
4 63 64 73 72
4 64 65 74 73
4 65 66 75 74
4 66 67 76 75
4 67 68 77 76
4 68 69 78 77
4 69 70 79 78
4 70 71 80 79

CELL_TYPES 64
9
9
9
9
9
9
9
9
9
9
9
9
9
9
9
9
9
9
9
9
9
9
9
9
9
9
9
9
9
9
9
9
9
9
9
9
9
9
9
9
9
9
9
9
9
9
9
9
9
9
9
9
9
9
9
9
9
9
9
9
9
9
9
9

POINT_DATA 81
VECTORS DISPLACEMENT float
0.00015581736291612195 -9.878425872041878e-05 0.0
5.645358690647197e-05 -1.5736493822278648e-05 0.0
4.282097453784955e-05 -2.418075011581127e-05 0.0
2.0880062959400338e-05 -2.3612830887955654e-05 0.0
0.0 -2.344724944679305e-05 0.0
-2.0880062981442117e-05 -2.361283089111019e-05 0.0
-4.2820974449711656e-05 -2.418075009004327e-05 0.0
-5.6453587242962004e-05 -1.5736493972920422e-05 0.0
-0.00015581736183041458 -9.878425783354155e-05 0.0
7.27500318356464e-05 -1.3689562503579354e-05 0.0
6.171791161420901e-05 -1.8956027454471703e-05 -3.2498461815643936e-10
4.137376890620664e-05 -1.75046516615927e-05 -5.198836971047885e-10
2.0564604347590643e-05 -1.7299343621981633e-05 -6.560657352847273e-10
-6.343587480220026e-15 -1.7456363461278968e-05 -7.025955864867744e-10
-2.0564604337432e-05 -1.7299343630983797e-05 -6.560657708892827e-10
-4.137376897338527e-05 -1.7504651638279825e-05 -5.198837638009077e-10
-6.171791149582636e-05 -1.8956027451819158e-05 -3.249846863096515e-10
-7.275003208712752e-05 -1.3689562686976102e-05 0.0
8.119674601598518e-05 -1.431293822193573e-05 0.0
6.026640155049639e-05 -1.2865859904481682e-05 -5.447168448926561e-10
3.992050733989569e-05 -1.1412620301847341e-05 -9.629498164472722e-10
2.0232358761979958e-05 -1.1520508832733687e-05 -1.2095583805364574e-09
1.824125767992835e-15 -1.1395098029338e-05 -1.296081509685229e-09
-2.0232358783489174e-05 -1.1520508823285194e-05 -1.2095584363273294e-09
-3.992050730473668e-05 -1.1412620314153239e-05 -9.629499023264023e-10
-6.026640159266468e-05 -1.2865859909301308e-05 -5.447169120462627e-10
-8.119674599832267e-05 -1.4312938175286674e-05 0.0
8.062869516461705e-05 -6.625971806480556e-06 0.0
6.006127960734273e-05 -6.310611197525567e-06 -6.819207583525431e-10
4.0028431869553205e-05 -5.978439208390905e-06 -1.2303764423443605e-09
1.99617885466889e-05 -5.707827589719262e-06 -1.5738533889158316e-09
-7.454116815494026e-15 -5.674434158196177e-06 -1.689223258983511e-09
-1.996178854108003e-05 -5.707827593557027e-06 -1.5738534482253015e-09
-4.002843189148199e-05 -5.978439206285827e-06 -1.230376528380304e-09
-6.006127960534471e-05 -6.310611192758675e-06 -6.819208213147864e-10
-8.0628695182814e-05 -6.625971820962008e-06 0.0
8.0463166752272e-05 -1.9862866350032154e-15 0.0
6.021830673957622e-05 3.229757229919344e-15 -7.273618008716906e-10
3.9903064344864297e-05 -1.3030963422796211e-15 -1.3221208984139104e-09
1.9928397972612997e-05 4.743688384506552e-15 -1.698876582205106e-09
0.0 0.0 -1.8263690910963936e-09
-1.9928397988571067e-05 4.774848053827565e-15 -1.698876641274315e-09
-3.990306434295295e-05 -1.2563765477290082e-15 -1.3221209839648812e-09
-6.0218306752007535e-05 3.2262651252798835e-15 -7.273618621909942e-10
-8.046316675224904e-05 -2.0048059806898118e-15 0.0
8.062869516466536e-05 6.625971815294028e-06 0.0
6.006127960388351e-05 6.310611192819937e-06 -6.8192077749538e-10
4.002843186584204e-05 5.9784392175613496e-06 -1.230376468716797e-09
1.9961788551802988e-05 5.707827585711581e-06 -1.5738534105026419e-09
-7.45459687365808e-15 5.674434173306505e-06 -1.6892232774178108e-09
-1.9961788546093674e-05 5.707827589549787e-06 -1.5738534698185098e-09
-4.0028431887951404e-05 5.978439215430208e-06 -1.2303765547249654e-09
-6.006127960181139e-05 6.310611188165502e-06 -6.81920840414498e-10
-8.062869518291338e-05 6.625971829545747e-06 0.0
8.119674599701987e-05 1.4312938221146576e-05 0.0
6.0266401547302653e-05 1.2865859918101411e-05 -5.447168836091031e-10
3.992050735739077e-05 1.1412620275027784e-05 -9.629498581282574e-10
2.023235875550621e-05 1.1520508859795927e-05 -1.2095584122452923e-09
1.8821383995601554e-15 1.1395098022124394e-05 -1.2960815369119255e-09
-2.0232358776939437e-05 1.1520508850207743e-05 -1.2095584680696706e-09
-3.992050732198326e-05 1.141262028731754e-05 -9.629499440064394e-10
-6.026640158937389e-05 1.28658599227984e-05 -5.447169506588363e-10
-8.119674597934286e-05 1.4312938174500668e-05 0.0
7.275003200246122e-05 1.3689562737143088e-05 0.0
6.171791162711218e-05 1.8956027342007008e-05 -3.249846608357242e-10
4.1373768899042565e-05 1.750465174029256e-05 -5.198837318148353e-10
2.056460434780549e-05 1.729934360522732e-05 -6.560657588874542e-10
-6.3176013649433374e-15 1.7456363480689578e-05 -7.025956060526078e-10
-2.056460433745174e-05 1.7299343614330245e-05 -6.560657945407152e-10
-4.13737689660824e-05 1.7504651716757113e-05 -5.198837985869038e-10
-6.171791150869402e-05 1.895602733932529e-05 -3.249847289565484e-10
-7.27500322537771e-05 1.3689562920481594e-05 0.0
0.00015581736198546994 9.87842575633615e-05 0.0
5.64535870287148e-05 1.5736494129936878e-05 0.0
4.2820974501076405e-05 2.4180750045893906e-05 0.0
2.088006297854295e-05 2.3612830925909605e-05 0.0
0.0 2.3447249436358823e-05 0.0
-2.0880063000516215e-05 2.3612830929029773e-05 0.0
-4.282097441289373e-05 2.4180750019846098e-05 0.0
-5.645358736510896e-05 1.5736494280764335e-05 0.0
-0.00015581736089948048 9.878425667665966e-05 0.0

SCALARS DISPLACEMENT_MAGNITUDE float 1
LOOKUP_TABLE default
0.0001844922230260048
5.860584196498842e-05
4.917666658624257e-05
3.152051414129717e-05
2.344724944679305e-05
3.1520514158261393e-05
4.9176666496825366e-05
5.860584232957055e-05
0.0001844922216341761
7.402682793168279e-05
6.456339203433796e-05
4.492439853318206e-05
2.6873225376846057e-05
1.745636347541824e-05
2.6873225374867252e-05
4.49243985859674e-05
6.456339192039396e-05
7.402682821274143e-05
8.24486007408819e-05
6.162442297680474e-05
4.151981225097334e-05
2.328240679787194e-05
1.139509810304633e-05
2.328240681188814e-05
4.151981222055117e-05
6.162442301905e-05
8.244860071538939e-05
8.090049435157374e-05
6.039189616349825e-05
4.0472423881177596e-05
2.076179906110487e-05
5.674434409628749e-06
2.0761799056767205e-05
4.0472423902554864e-05
6.039189616101306e-05
8.090049437089564e-05
8.0463166752272e-05
6.021830674396903e-05
3.9903064366767423e-05
1.9928398045026786e-05
1.8263690910963936e-09
1.9928398060984863e-05
3.990306436485608e-05
6.021830675640034e-05
8.046316675224904e-05
8.090049435234374e-05
6.039189615956626e-05
4.0472423878861774e-05
2.0761799064920107e-05
5.674434424739083e-06
2.076179906048599e-05
4.047242390041379e-05
6.039189615701912e-05
8.090049437169771e-05
8.244860072206757e-05
6.162442297652489e-05
4.151981226042259e-05
2.32824068056371e-05
1.1395098095832726e-05
2.328240681951814e-05
4.151981222975706e-05
6.162442301864963e-05
8.244860069656131e-05
7.402682813881268e-05
6.456339201365245e-05
4.4924398557249363e-05
2.6873225366225063e-05
1.745636349482885e-05
2.6873225364161813e-05
4.492439860982014e-05
6.456339189966594e-05
7.402682841969817e-05
0.000184492221620467
5.8605842165352536e-05
4.917666651984286e-05
3.1520514182410045e-05
2.3447249436358823e-05
3.152051419930315e-05
4.917666643024908e-05
5.860584252989217e-05
0.000184492220228494

VECTORS REACTION float
0.0 0.0 0.0
0.0 0.0 0.0
0.0 0.0 0.0
0.0 0.0 0.0
0.0 0.0 0.0
0.0 0.0 0.0
0.0 0.0 0.0
0.0 0.0 0.0
0.0 0.0 0.0
0.0 0.0 0.0
0.0 0.0 0.0
0.0 0.0 0.0
0.0 0.0 0.0
0.0 0.0 0.0
0.0 0.0 0.0
0.0 0.0 0.0
0.0 0.0 0.0
0.0 0.0 0.0
0.0 0.0 0.0
0.0 0.0 0.0
0.0 0.0 0.0
0.0 0.0 0.0
0.0 0.0 0.0
0.0 0.0 0.0
0.0 0.0 0.0
0.0 0.0 0.0
0.0 0.0 0.0
0.0 0.0 0.0
0.0 0.0 0.0
0.0 0.0 0.0
0.0 0.0 0.0
0.0 0.0 0.0
0.0 0.0 0.0
0.0 0.0 0.0
0.0 0.0 0.0
0.0 0.0 0.0
0.0 0.0 0.0
0.0 0.0 0.0
0.0 0.0 0.0
0.0 0.0 0.0
0.0 0.0 0.0
0.0 0.0 0.0
0.0 0.0 0.0
0.0 0.0 0.0
0.0 0.0 0.0
0.0 0.0 0.0
0.0 0.0 0.0
0.0 0.0 0.0
0.0 0.0 0.0
0.0 0.0 0.0
0.0 0.0 0.0
0.0 0.0 0.0
0.0 0.0 0.0
0.0 0.0 0.0
0.0 0.0 0.0
0.0 0.0 0.0
0.0 0.0 0.0
0.0 0.0 0.0
0.0 0.0 0.0
0.0 0.0 0.0
0.0 0.0 0.0
0.0 0.0 0.0
0.0 0.0 0.0
0.0 0.0 0.0
0.0 0.0 0.0
0.0 0.0 0.0
0.0 0.0 0.0
0.0 0.0 0.0
0.0 0.0 0.0
0.0 0.0 0.0
0.0 0.0 0.0
0.0 0.0 0.0
0.0 0.0 0.0
0.0 0.0 0.0
0.0 0.0 0.0
0.0 0.0 0.0
0.0 0.0 0.0
0.0 0.0 0.0
0.0 0.0 0.0
0.0 0.0 0.0
0.0 0.0 0.0

VECTORS ROTATION float
0.0 0.0 0.0008610393968623485
-1.3931608378785913e-09 0.0 -0.00010039277344240554
-2.1272073308816935e-09 0.0 9.84525180714465e-06
-2.694834459063871e-09 0.0 -7.62784530514678e-07
-2.887625488643509e-09 0.0 -5.600492872405424e-15
-2.694834615945949e-09 0.0 7.62784495292681e-07
-2.127207636607114e-09 0.0 -9.845251265256165e-06
-1.3931612183582308e-09 0.0 0.00010039277085095105
0.0 0.0 -0.0008610393868118939
0.0 1.4171768855066216e-09 -0.00010041592956238565
-1.1187166273437414e-09 1.0421451914094275e-09 4.8670140148164646e-05
-1.992419352768734e-09 6.383090612147086e-10 -2.3301361342826872e-07
-2.487543062048352e-09 3.8585949648661776e-10 1.9423075828489496e-06
-2.66246250860508e-09 7.189211973293596e-17 9.291028603329487e-15
-2.487543183601108e-09 -3.8585935769528683e-10 -1.9423075847155946e-06
-1.992419522494914e-09 -6.383089705815722e-10 2.330134837941227e-07
-1.1187167566761328e-09 -1.0421453030053423e-09 -4.867013939855557e-05
0.0 -1.4171772277072319e-09 0.00010041592765073393
0.0 2.2771979435177955e-09 9.847466340875308e-06
-7.004959778140009e-10 1.9839069381524495e-09 -2.348049456540072e-07
-1.4556994840055382e-09 1.3291305379392099e-09 -1.2776019692544804e-06
-1.8841603448769106e-09 6.684548527950875e-10 1.0938390321119887e-06
-2.0248321246488624e-09 1.1966000107364764e-16 -9.356954067637581e-15
-1.8841603883952354e-09 -6.684546641896332e-10 -1.0938390333563563e-06
-1.4556994994861778e-09 -1.3291305025927895e-09 1.2776020230498793e-06
-7.004959357662089e-10 -1.983907139173607e-09 2.3480470735346678e-07
0.0 -2.2771982545090527e-09 -9.847465809030456e-06
0.0 2.8220934338838193e-09 -7.63348064825221e-07
-3.7191236501869397e-10 2.530520080457143e-09 1.942086785104122e-06
-7.160122324578756e-10 1.810060867941755e-09 1.0938294765015502e-06
-9.976640194121897e-10 9.221393593252005e-10 1.1079702800564394e-08
-1.0858156540427614e-09 1.3033225318258387e-16 3.515870322239303e-15
-9.97664019434142e-10 -9.221391690950439e-10 -1.1079686227414722e-08
-7.160122283910935e-10 -1.810060856533733e-09 -1.0938295028506293e-06
-3.719123539163762e-10 -2.5305202674675008e-09 -1.9420867397599265e-06
0.0 -2.8220937158333723e-09 7.633479406432708e-07
0.0 3.003187255039193e-09 2.0165976330621598e-14
-3.7514697652831185e-17 2.7178127123023766e-09 3.6040274059776527e-16
-5.70093083744912e-17 1.9779828270859596e-09 -2.1921479540256971e-16
-4.714033826948308e-17 1.0169326186905398e-09 5.6985324363116196e-15
-3.994219952187142e-17 1.2978069622680905e-16 -1.1650479698098715e-17
-4.7143411896136433e-17 -1.0169324285995931e-09 -5.7416682226496445e-15
-5.693884673520991e-17 -1.977982820399244e-09 1.5798053481113502e-16
-3.745368870431329e-17 -2.7178129037043375e-09 -4.1370616763210627e-16
0.0 -3.0031875289831016e-09 -2.025474751107903e-14
0.0 2.822093520079386e-09 7.633480585592636e-07
3.7191228033763986e-10 2.5305201345770335e-09 -1.942086805002378e-06
7.160121418965263e-10 1.8100608653173053e-09 -1.0938294474392133e-06
9.976639495543975e-10 9.22139336263551e-10 -1.1079701600707985e-08
1.085815593835609e-09 1.3036614339832018e-16 -3.500640187533862e-15
9.976639495095097e-10 -9.221391460921881e-10 1.1079685010085692e-08
7.160121378723778e-10 -1.8100608540622481e-09 1.093829473796955e-06
3.719122695266026e-10 -2.530520321528631e-09 1.942086759469382e-06
0.0 -2.822093801791192e-09 -7.633479342662296e-07
0.0 2.277198133532313e-09 -9.847466352848232e-06
7.00495909731314e-10 1.983907035347931e-09 2.348048880512466e-07
1.4556994584250203e-09 1.3291305044603387e-09 1.2776019667898336e-06
1.884160339795777e-09 6.684548178330288e-10 -1.0938390614677188e-06
2.0248321210356445e-09 1.197452214572301e-16 9.334646156063579e-15
1.8841603831865238e-09 -6.68454629170852e-10 1.0938390627079404e-06
1.4556994735961323e-09 -1.3291304695166372e-09 -1.2776020205865354e-06
7.004958676508476e-10 -1.983907236425993e-09 -2.3480464983526926e-07
0.0 -2.277198443886964e-09 9.847465820427596e-06
0.0 1.4171771125537744e-09 0.00010041592753564339
1.1187167120337078e-09 1.0421452273414138e-09 -4.8670139413722435e-05
1.992419436881812e-09 6.383090000980718e-10 2.3301342326038936e-07
2.487543134042449e-09 3.858594680131377e-10 -1.9423074997606574e-06
2.662462567947993e-09 7.197874619370695e-17 -9.312850889346062e-15
2.4875432556621527e-09 -3.8585932898432386e-10 1.9423075016002186e-06
1.9924196065651873e-09 -6.383089097102861e-10 -2.330132936658735e-07
1.1187168410737593e-09 -1.0421453391716546e-09 4.867013866418616e-05
0.0 -1.417177454447829e-09 -0.00010041592562385374
0.0 0.0 -0.0008610393865779324
1.3931610861702603e-09 0.0 0.00010039277190225245
2.127207486397031e-09 0.0 -9.845251379043596e-06
2.694834566666573e-09 0.0 7.627843138724945e-07
2.8876255743481843e-09 0.0 5.684165040634751e-15
2.6948347238099958e-09 0.0 -7.627842786673042e-07
2.1272077925993576e-09 0.0 9.845250837153777e-06
1.3931614666025034e-09 0.0 -0.0001003927693103643
0.0 0.0 0.0008610393765276058
