# vtk DataFile Version 3.0
Kratos Results - Step 7
ASCII
DATASET UNSTRUCTURED_GRID
POINTS 81 float
0.00015589528730770592 -9.88336579425637e-05 0.0
0.2500564818160807 -1.5744361390556254e-05 0.0
0.5000428423857217 -2.4192840036296794e-05 0.0
0.7500208905033419 -2.3624636748810555e-05 0.0
1.0 -2.3458972526758352e-05 0.0
1.2499791094966362 -2.3624636751971465e-05 0.0
1.4999571576143664 -2.4192840010511116e-05 0.0
1.7499435181835825 -1.5744361541440222e-05 0.0
1.999844104713779 -9.883365705479021e-05 0.0
7.27864049962956e-05 0.24998630359138893 0.0
0.2500617487705351 0.24998103449455025 -3.2628290801877186e-10
0.5000413944562563 0.24998248659661776 -5.221959898222268e-10
0.7500205748867792 0.24998269200725515 -6.590608710156643e-10
0.9999999999999937 0.24998253490894598 -7.05828901071828e-10
1.2499794251132312 0.24998269200724615 -6.590608650500274e-10
1.4999586055436767 0.2499824865966411 -5.221959796053403e-10
1.7499382512295836 0.24998103449455286 -3.2628289852465165e-10
1.9999272135947521 0.24998630359120527 0.0
8.123734398773492e-05 0.49998567990465814 0.0
0.25006029653406237 0.4999871277066821 -5.470603267695624e-10
0.5000399404671768 0.49998858167377597 -9.672271675808826e-10
0.7500202424748638 0.4999884737313993 -1.2150909249660276e-09
1.000000000000002 0.49998859920489597 -1.3020542303867775e-09
1.2499797575251146 0.4999884737314088 -1.2150909153933232e-09
1.4999600595328586 0.49998858167376364 -9.67227152778325e-10
1.7499397034658954 0.4999871277066773 -5.470603153980252e-10
1.99991876265603 0.4999856799047048 0.0
8.066900894498361e-05 0.749993370714916 0.0
0.2500600913097076 0.7499936862333778 -6.849504815778506e-10
0.5000400484455881 0.7499940185716231 -1.2359371288788642e-09
0.7500199717691927 0.7499942893187391 -1.581076097601857e-09
0.9999999999999926 0.7499943227289135 -1.6970231590619203e-09
1.2499800282308131 0.7499942893187354 -1.5810760869409015e-09
1.49995995155439 0.7499940185716251 -1.2359371134359407e-09
1.7499399086902945 0.7499936862333826 -6.84950470456401e-10
1.9999193309910368 0.7499933707149016 0.0
8.05033978048632e-05 0.9999999999999979 0.0
0.25006024841531693 1.000000000000003 -7.306293781008111e-10
0.5000399230154134 0.9999999999999988 -1.3281294880960594e-09
0.7500199383618786 1.0000000000000049 -1.7066897926882168e-09
1.0 1.0 -1.834809738058893e-09
1.2499800616381054 1.0000000000000049 -1.706689781909454e-09
1.4999600769845884 0.9999999999999988 -1.3281294726535325e-09
1.7499397515846706 1.000000000000003 -7.306293670428183e-10
1.9999194966021951 0.9999999999999979 0.0
8.06690089450362e-05 1.2500066292850927 0.0
0.25006009130970414 1.2500063137666175 -6.849504888405768e-10
0.5000400484455844 1.2500059814283861 -1.2359371390530602e-09
0.7500199717691977 1.250005710681257 -1.5810761072770829e-09
0.9999999999999926 1.2500056772711015 -1.697023167962121e-09
1.249980028230808 1.2500057106812608 -1.5810760965944992e-09
1.4999599515543935 1.250005981428384 -1.2359371235783725e-09
1.749939908690298 1.2500063137666129 -6.849504776937081e-10
1.9999193309910368 1.250006629285107 0.0
8.123734396867317e-05 1.500014320095341 0.0
0.2500602965340592 1.5000128722933315 -5.470603402628529e-10
0.5000399404671942 1.5000114183261972 -9.67227184759804e-10
0.7500202424748573 1.5000115262686278 -1.2150909393989687e-09
1.0000000000000018 1.5000114007950969 -1.3020542431216451e-09
1.2499797575251212 1.5000115262686182 -1.2150909297924552e-09
1.499960059532841 1.5000114183262097 -9.67227169913625e-10
1.7499397034658988 1.5000128722933361 -5.470603288622518e-10
1.999918762656049 1.5000143200952942 0.0
7.27864051631887e-05 1.750013696408845 0.0
0.25006174877054804 1.7500189655053373 -3.2628292335059833e-10
0.5000413944562491 1.7500175134034608 -5.221960044584685e-10
0.7500205748867794 1.7500173079927281 -6.590608815951264e-10
0.9999999999999938 1.7500174650910736 -7.058289102505844e-10
1.249979425113231 1.750017307992737 -6.590608756058384e-10
1.4999586055436838 1.7500175134034377 -5.221959942130662e-10
1.7499382512295705 1.7500189655053344 -3.262829138378245e-10
1.9999272135945851 1.7500136964090285 0.0
0.00015589528637619942 2.0000988336567844 0.0
0.2500564818162031 2.000015744361699 0.0
0.5000428423856849 2.000024192839966 0.0
0.7500208905033611 2.000023624636787 0.0
1.0 2.0000234589725165 0.0
1.2499791094966166 2.00002362463679 0.0
1.4999571576144035 2.0000241928399403 0.0
1.7499435181834602 2.0000157443618494 0.0
1.9998441047147106 2.0000988336558967 0.0

CELLS 64 320
4 0 1 10 9
4 1 2 11 10
4 2 3 12 11
4 3 4 13 12
4 4 5 14 13
4 5 6 15 14
4 6 7 16 15
4 7 8 17 16
4 9 10 19 18
4 10 11 20 19
4 11 12 21 20
4 12 13 22 21
4 13 14 23 22
4 14 15 24 23
4 15 16 25 24
4 16 17 26 25
4 18 19 28 27
4 19 20 29 28
4 20 21 30 29
4 21 22 31 30
4 22 23 32 31
4 23 24 33 32
4 24 25 34 33
4 25 26 35 34
4 27 28 37 36
4 28 29 38 37
4 29 30 39 38
4 30 31 40 39
4 31 32 41 40
4 32 33 42 41
4 33 34 43 42
4 34 35 44 43
4 36 37 46 45
4 37 38 47 46
4 38 39 48 47
4 39 40 49 48
4 40 41 50 49
4 41 42 51 50
4 42 43 52 51
4 43 44 53 52
4 45 46 55 54
4 46 47 56 55
4 47 48 57 56
4 48 49 58 57
4 49 50 59 58
4 50 51 60 59
4 51 52 61 60
4 52 53 62 61
4 54 55 64 63
4 55 56 65 64
4 56 57 66 65
4 57 58 67 66
4 58 59 68 67
4 59 60 69 68
4 60 61 70 69
4 61 62 71 70
4 63 64 73 72
4 64 65 74 73
4 65 66 75 74
4 66 67 76 75
4 67 68 77 76
4 68 69 78 77
4 69 70 79 78
4 70 71 80 79

CELL_TYPES 64
9
9
9
9
9
9
9
9
9
9
9
9
9
9
9
9
9
9
9
9
9
9
9
9
9
9
9
9
9
9
9
9
9
9
9
9
9
9
9
9
9
9
9
9
9
9
9
9
9
9
9
9
9
9
9
9
9
9
9
9
9
9
9
9

POINT_DATA 81
VECTORS DISPLACEMENT float
0.00015589528730770592 -9.88336579425637e-05 0.0
5.64818160807e-05 -1.5744361390556254e-05 0.0
4.284238572168608e-05 -2.4192840036296794e-05 0.0
2.0890503341912077e-05 -2.3624636748810555e-05 0.0
0.0 -2.3458972526758352e-05 0.0
-2.0890503363950638e-05 -2.3624636751971465e-05 0.0
-4.284238563346151e-05 -2.4192840010511116e-05 0.0
-5.6481816417481786e-05 -1.5744361541440222e-05 0.0
-0.00015589528622104255 -9.883365705479021e-05 0.0
7.27864049962956e-05 -1.3696408611080725e-05 0.0
6.174877053510486e-05 -1.89655054497429e-05 -3.2628290801877186e-10
4.139445625626143e-05 -1.7513403382246435e-05 -5.221959898222268e-10
2.057488677924641e-05 -1.7307992744856795e-05 -6.590608710156643e-10
-6.278225527472315e-15 -1.746509105401091e-05 -7.05828901071828e-10
-2.0574886768844698e-05 -1.7307992753846044e-05 -6.590608650500274e-10
-4.139445632337706e-05 -1.7513403358895174e-05 -5.221959796053403e-10
-6.17487704164654e-05 -1.8965505447141578e-05 -3.2628289852465165e-10
-7.278640524796888e-05 -1.3696408794720707e-05 0.0
8.123734398773492e-05 -1.432009534187189e-05 0.0
6.029653406239244e-05 -1.2872293317913125e-05 -5.470603267695624e-10
3.994046717679079e-05 -1.1418326224056989e-05 -9.672271675808826e-10
2.0242474863785416e-05 -1.1526268600707439e-05 -1.2150909249660276e-09
1.9352826584384018e-15 -1.1400795104052559e-05 -1.3020542303867775e-09
-2.0242474885346992e-05 -1.1526268591214294e-05 -1.2150909153933232e-09
-3.99404671414979e-05 -1.1418326236382142e-05 -9.67227152778325e-10
-6.029653410453403e-05 -1.2872293322688934e-05 -5.470603153980252e-10
-8.123734397004946e-05 -1.432009529515108e-05 0.0
8.066900894498361e-05 -6.629285083983074e-06 0.0
6.009130970759647e-05 -6.313766622239956e-06 -6.849504815778506e-10
4.00484455880976e-05 -5.981428376981335e-06 -1.2359371288788642e-09
1.9971769192638666e-05 -5.710681260839325e-06 -1.581076097601857e-09
-7.4489519286811e-15 -5.67727108643043e-06 -1.6970231590619203e-09
-1.9971769186933252e-05 -5.710681264643645e-06 -1.5810760869409015e-09
-4.004844561010437e-05 -5.981428374945124e-06 -1.2359371134359407e-09
-6.0091309705441995e-05 -6.313766617389694e-06 -6.84950470456401e-10
-8.066900896311582e-05 -6.629285098454801e-06 0.0
8.05033978048632e-05 -2.1558361559195434e-15 0.0
6.024841531695347e-05 3.1653590557507672e-15 -7.306293781008111e-10
3.9923015413399856e-05 -1.2637913044674526e-15 -1.3281294880960594e-09
1.9938361878624968e-05 4.8062106027189625e-15 -1.7066897926882168e-09
0.0 0.0 -1.834809738058893e-09
-1.993836189467773e-05 4.841909378415106e-15 -1.706689781909454e-09
-3.992301541158624e-05 -1.2112402893881162e-15 -1.3281294726535325e-09
-6.024841532935914e-05 3.161696900870317e-15 -7.306293670428183e-10
-8.050339780476836e-05 -2.161945827335017e-15 0.0
8.06690089450362e-05 6.6292850927492006e-06 0.0
6.0091309704127115e-05 6.313766617586668e-06 -6.849504888405768e-10
4.004844558436454e-05 5.981428386114315e-06 -1.2359371390530602e-09
1.9971769197644638e-05 5.710681256950548e-06 -1.5810761072770829e-09
-7.45420237112359e-15 5.67727110143023e-06 -1.697023167962121e-09
-1.9971769192062653e-05 5.71068126065457e-06 -1.5810760965944992e-09
-4.004844560643578e-05 5.981428383958442e-06 -1.2359371235783725e-09
-6.009130970206192e-05 6.313766612758319e-06 -6.849504776937081e-10
-8.066900896319662e-05 6.6292851071428086e-06 0.0
8.123734396867317e-05 1.4320095341036673e-05 0.0
6.0296534059226476e-05 1.2872293331488124e-05 -5.470603402628529e-10
3.99404671942058e-05 1.1418326197243116e-05 -9.67227184759804e-10
2.0242474857346312e-05 1.1526268627743867e-05 -1.2150909393989687e-09
1.7592598160675546e-15 1.140079509677902e-05 -1.3020542431216451e-09
-2.0242474878835464e-05 1.1526268618280235e-05 -1.2150909297924552e-09
-3.994046715899589e-05 1.1418326209632841e-05 -9.67227169913625e-10
-6.0296534101230555e-05 1.2872293336177996e-05 -5.470603288622518e-10
-8.12373439510409e-05 1.4320095294288961e-05 0.0
7.27864051631887e-05 1.3696408844986953e-05 0.0
6.174877054804692e-05 1.8965505337201743e-05 -3.2628292335059833e-10
4.139445624906608e-05 1.7513403460833346e-05 -5.221960044584685e-10
2.0574886779422957e-05 1.7307992728173783e-05 -6.590608815951264e-10
-6.253172951739273e-15 1.74650910734785e-05 -7.058289102505844e-10
-2.057488676904916e-05 1.730799273709854e-05 -6.590608756058384e-10
-4.139445631627605e-05 1.75134034376284e-05 -5.221959942130662e-10
-6.174877042949238e-05 1.8965505334442584e-05 -3.262829138378245e-10
-7.278640541483443e-05 1.3696409028497244e-05 0.0
0.00015589528637619942 9.883365678448244e-05 0.0
5.6481816203123524e-05 1.574436169860539e-05 0.0
4.2842385684824546e-05 2.4192839966097265e-05 0.0
2.0890503361081557e-05 2.362463678675329e-05 0.0
0.0 2.3458972516436544e-05 0.0
-2.089050338329082e-05 2.3624636789872812e-05 0.0
-4.284238559656087e-05 2.4192839940170616e-05 0.0
-5.6481816539924736e-05 1.5744361849442517e-05 0.0
-0.00015589528528941842 9.883365589667276e-05 0.0

SCALARS DISPLACEMENT_MAGNITUDE float 1
LOOKUP_TABLE default
0.00018458448620363484
5.8635146997090915e-05
4.920125530255886e-05
3.1536274215444186e-05
2.3458972526758352e-05
3.153627423241106e-05
4.920125521305749e-05
5.8635147362019116e-05
0.00018458448481051886
7.406383976763865e-05
6.459567369156948e-05
4.4946860925469654e-05
2.6886661735313765e-05
1.7465091068273487e-05
2.6886661733140634e-05
4.4946860978182005e-05
6.459567357739503e-05
7.406384004893113e-05
8.248982475906876e-05
6.165523461555327e-05
4.154057164983191e-05
2.3294047693414824e-05
1.1400795178404618e-05
2.3294047707454426e-05
4.154057161928631e-05
6.165523465776326e-05
8.248982473354116e-05
8.094094405732223e-05
6.042209158746117e-05
4.049265959379937e-05
2.0772179655653232e-05
5.677271340063513e-06
2.0772179651213543e-05
4.0492659615263944e-05
6.0422091584811666e-05
8.09409440765788e-05
8.05033978048632e-05
6.0248415321383624e-05
3.992301543549147e-05
1.9938361951669836e-05
1.834809738058893e-09
1.9938361967722598e-05
3.992301543367786e-05
6.024841533378929e-05
8.050339780476836e-05
8.094094405809261e-05
6.042209158352457e-05
4.0492659591456355e-05
2.0772179659397206e-05
5.677271355063315e-06
2.077217965504862e-05
4.049265961296701e-05
6.0422091580966144e-05
8.094094407737089e-05
8.248982474015143e-05
6.165523461529124e-05
4.1540571659205736e-05
2.329404770119732e-05
1.1400795171131083e-05
2.3294047715188586e-05
4.154057162875766e-05
6.165523465734881e-05
8.248982471467156e-05
7.406383997490881e-05
6.45956736708987e-05
4.494686094946413e-05
2.688666172470936e-05
1.746509108774108e-05
2.6886661722516073e-05
4.4946861002320384e-05
6.459567355675909e-05
7.406384025615022e-05
0.0001845844847968271
5.8635147197734054e-05
4.920125523594344e-05
3.153627425656646e-05
2.3458972516436544e-05
3.1536274273615414e-05
4.92012551463387e-05
5.863514756266839e-05
0.0001845844834035924

VECTORS REACTION float
0.0 0.0 0.0
0.0 0.0 0.0
0.0 0.0 0.0
0.0 0.0 0.0
0.0 0.0 0.0
0.0 0.0 0.0
0.0 0.0 0.0
0.0 0.0 0.0
0.0 0.0 0.0
0.0 0.0 0.0
0.0 0.0 0.0
0.0 0.0 0.0
0.0 0.0 0.0
0.0 0.0 0.0
0.0 0.0 0.0
0.0 0.0 0.0
0.0 0.0 0.0
0.0 0.0 0.0
0.0 0.0 0.0
0.0 0.0 0.0
0.0 0.0 0.0
0.0 0.0 0.0
0.0 0.0 0.0
0.0 0.0 0.0
0.0 0.0 0.0
0.0 0.0 0.0
0.0 0.0 0.0
0.0 0.0 0.0
0.0 0.0 0.0
0.0 0.0 0.0
0.0 0.0 0.0
0.0 0.0 0.0
0.0 0.0 0.0
0.0 0.0 0.0
0.0 0.0 0.0
0.0 0.0 0.0
0.0 0.0 0.0
0.0 0.0 0.0
0.0 0.0 0.0
0.0 0.0 0.0
0.0 0.0 0.0
0.0 0.0 0.0
0.0 0.0 0.0
0.0 0.0 0.0
0.0 0.0 0.0
0.0 0.0 0.0
0.0 0.0 0.0
0.0 0.0 0.0
0.0 0.0 0.0
0.0 0.0 0.0
0.0 0.0 0.0
0.0 0.0 0.0
0.0 0.0 0.0
0.0 0.0 0.0
0.0 0.0 0.0
0.0 0.0 0.0
0.0 0.0 0.0
0.0 0.0 0.0
0.0 0.0 0.0
0.0 0.0 0.0
0.0 0.0 0.0
0.0 0.0 0.0
0.0 0.0 0.0
0.0 0.0 0.0
0.0 0.0 0.0
0.0 0.0 0.0
0.0 0.0 0.0
0.0 0.0 0.0
0.0 0.0 0.0
0.0 0.0 0.0
0.0 0.0 0.0
0.0 0.0 0.0
0.0 0.0 0.0
0.0 0.0 0.0
0.0 0.0 0.0
0.0 0.0 0.0
0.0 0.0 0.0
0.0 0.0 0.0
0.0 0.0 0.0
0.0 0.0 0.0
0.0 0.0 0.0

VECTORS ROTATION float
0.0 0.0 0.0008614700182069814
-1.3985470756852492e-09 0.0 -0.0001004429647191884
-2.136696126807427e-09 0.0 9.850173680862034e-06
-2.7071379979622823e-09 0.0 -7.631660381045575e-07
-2.900908648392778e-09 0.0 -5.674762447607568e-15
-2.707137973087591e-09 0.0 7.63166002788986e-07
-2.1366960779758673e-09 0.0 -9.850173138426199e-06
-1.3985470362710604e-09 0.0 0.00010044296212443191
0.0 0.0 -0.0008614700081466878
0.0 1.4225992945008038e-09 -0.00010046614400640292
-1.1235546451258777e-09 1.0468361663085888e-09 4.869448636163999e-05
-2.0012124105241866e-09 6.417494845582461e-10 -2.3312773139768848e-07
-2.498911276705152e-09 3.8775670152208346e-10 1.9432797161162233e-06
-2.6747299463137344e-09 -1.2175008286186513e-17 9.266851938385953e-15
-2.4989112599288528e-09 -3.877567250977087e-10 -1.9432797181159474e-06
-2.00121236914685e-09 -6.41749494397844e-10 2.331276015604244e-07
-1.123554638956211e-09 -1.046836129379767e-09 -4.8694485611368254e-05
0.0 -1.4225992430354645e-09 0.00010046614209259813
0.0 2.2868562758701172e-09 9.852390430903665e-06
-7.040149769274558e-10 1.9926946071154745e-09 -2.3492085564868032e-07
-1.4623714681965444e-09 1.3356272336523036e-09 -1.2782407880753976e-06
-1.8928426038345436e-09 6.719142311712317e-10 1.0943865357713961e-06
-2.0342099665808368e-09 -2.0594173794193608e-17 -9.369221728091197e-15
-1.8928425962024137e-09 -6.719142635732691e-10 -1.0943865369972828e-06
-1.4623714592443336e-09 -1.3356272399571142e-09 1.2782408419597873e-06
-7.040149773646504e-10 -1.99269458480098e-09 2.3492061712846218e-07
0.0 -2.2868562268452072e-09 -9.85238989810724e-06
0.0 2.834548569097299e-09 -7.637301364043335e-07
-3.7380642565997124e-10 2.541928252679408e-09 1.9430586978018586e-06
-7.195446975979274e-10 1.8186338035237252e-09 1.0943769703756487e-06
-1.0023411892412357e-09 9.267067844472436e-10 1.1085263465612172e-08
-1.0908810137058084e-09 -2.3352886620740908e-17 3.5239190407208966e-15
-1.0023411876909243e-09 -9.267068188855628e-10 -1.108524685219624e-08
-7.195446980226252e-10 -1.818633804409802e-09 -1.0943769967776604e-06
-3.7380642440212737e-10 -2.5419282155133422e-09 -1.9430586522210206e-06
0.0 -2.834548518339561e-09 7.637300120252058e-07
0.0 3.0166121006333307e-09 2.0248004118302004e-14
-1.4826090888097044e-17 2.7301408448495274e-09 3.674666763885975e-16
-2.1304552770900495e-17 1.9872836843755568e-09 -1.469486000149044e-16
-2.0949818942926888e-17 1.0218969582187456e-09 5.708766332353454e-15
-1.9637065259801277e-17 -2.3796778517511746e-17 -8.672977153394074e-18
-2.0903948182492167e-17 -1.0218969923718755e-09 -5.737253265600835e-15
-2.1233495218728956e-17 -1.9872836854715066e-09 1.3408696879408934e-16
-1.4765382209797878e-17 -2.7301408118418975e-09 -3.4835488497290636e-16
0.0 -3.0166120520573428e-09 -2.0244378355723094e-14
0.0 2.834548600909682e-09 7.637301300808903e-07
3.738063967950035e-10 2.5419282712039606e-09 -1.943058717659626e-06
7.195446603989247e-10 1.8186338055074419e-09 -1.0943769413124852e-06
1.0023411570098797e-09 9.26706779910236e-10 -1.1085262296146384e-08
1.0908809856340912e-09 -2.3400636455256115e-17 -3.5116814779402183e-15
1.0023411555368482e-09 -9.267068144169862e-10 1.1085245683437512e-08
7.195446609215658e-10 -1.8186338064040223e-09 1.0943769676589049e-06
3.738063955995121e-10 -2.541928233969449e-09 1.9430586720441305e-06
0.0 -2.8345485500354884e-09 -7.63730005731813e-07
0.0 2.2868563416729285e-09 -9.852390442368278e-06
7.040149533472165e-10 1.992694653206534e-09 2.3492079803539563e-07
1.4623714537732992e-09 1.3356272311679157e-09 1.2782407856091538e-06
1.8928426017435175e-09 6.719142185724175e-10 -1.0943865651033288e-06
2.0342099654972475e-09 -2.0671155435458505e-17 9.377797866982437e-15
1.8928425941174135e-09 -6.719142510694709e-10 1.0943865663657908e-06
1.4623714448113355e-09 -1.3356272374591247e-09 -1.2782408394108158e-06
7.040149537641658e-10 -1.9926946307970115e-09 -2.3492055952851526e-07
0.0 -2.286856292521229e-09 9.852389909542358e-06
0.0 1.4225993641686667e-09 0.00010046614197717464
1.1235546902010418e-09 1.0468361774307644e-09 -4.869448562652574e-05
2.001212438572053e-09 6.417494662405276e-10 2.3312754101376608e-07
2.4989113115624514e-09 3.877566913559602e-10 -1.943279633014312e-06
2.6747299733416446e-09 -1.2230205230811004e-17 -9.277378252180804e-15
2.498911294708902e-09 -3.87756714993036e-10 1.9432796349255e-06
2.001212397096805e-09 -6.417494760653051e-10 -2.3312741120223658e-07
1.1235546839689402e-09 -1.0468361404405937e-09 4.8694484876219896e-05
0.0 -1.4225993126226513e-09 -0.00010046614006347813
0.0 0.0 -0.0008614700079124931
1.3985471602537658e-09 0.0 0.00010044296317712456
2.1366961931986384e-09 0.0 -9.850173252386039e-06
2.707138046445809e-09 0.0 7.631658213046625e-07
2.9009086886834364e-09 0.0 5.6865998222221855e-15
2.707138021467272e-09 0.0 -7.631657859470624e-07
2.1366961442444267e-09 0.0 9.850172709956329e-06
1.3985471207585876e-09 0.0 -0.00010044296058238989
0.0 0.0 0.0008614699978521876
