# vtk DataFile Version 3.0
Kratos Results - Step 8
ASCII
DATASET UNSTRUCTURED_GRID
POINTS 81 float
0.0001668234202793794 -0.00010576138674244449 0.0
0.25006044064861815 -1.6847688388106544e-05 0.0
0.5000458450587765 -2.588830434917385e-05 0.0
0.7500223546473941 -2.5280264061133763e-05 0.0
1.0 -2.510299090428484e-05 0.0
1.2499776453525806 -2.528026406473734e-05 0.0
1.4999541549413247 -2.588830431963291e-05 0.0
1.7499395593509963 -1.6847688560733082e-05 0.0
1.9998331765809643 -0.00010576138572657009 0.0
7.788729365175231e-05 0.24998534349236332 0.0
0.25006607637010303 0.24997970531762415 -6.851697388469598e-10
0.5000442956178606 0.24998125927696369 -1.1724114296823703e-09
0.7500220168778947 0.24998147907517435 -1.5049707184979098e-09
0.9999999999999929 0.24998131097278964 -1.6202577918722082e-09
1.2499779831221172 0.24998147907516408 -1.504970722733035e-09
1.4999557043820626 0.2499812592769904 -1.1724114382938158e-09
1.7499339236300326 0.24997970531762717 -6.851697489308385e-10
1.9999221127060602 0.24998534349215315 0.0
8.693072699185415e-05 0.4999846761965165 0.0
0.25006452225685044 0.49998622549150157 -1.2023967213700387e-09
0.5000427395948922 0.49998778148929535 -2.169824848818721e-09
0.7500216611381387 0.49998766599667255 -2.7780159049022853e-09
1.000000000000002 0.4999878002620388 -2.991487871989856e-09
1.2499783388618366 0.4999876659966834 -2.7780159114924386e-09
1.4999572604051483 0.49998778148928125 -2.1698248587784755e-09
1.7499354777431013 0.499986225491496 -1.202396729255277e-09
1.9999130692730283 0.49998467619657005 0.0
8.632253582743443e-05 0.7499929060639251 0.0
0.2500643026719535 0.7499932437210881 -1.5362590247055513e-09
0.5000428551287779 0.749993599376484 -2.8031891746389086e-09
0.7500213714346717 0.7499938891274102 -3.6223403770046423e-09
0.9999999999999915 0.7499939248860249 -3.903810547494427e-09
1.2499786285653347 0.7499938891274058 -3.6223403837881404e-09
1.499957144871197 0.7499935993764865 -2.8031891844046323e-09
1.7499356973280489 0.7499932437210935 -1.5362590319173511e-09
1.9999136774641517 0.7499929060639087 0.0
8.614532345546487e-05 0.9999999999999976 0.0
0.250064470782698 1.0000000000000038 -1.6502611127854702e-09
0.5000427209130199 0.9999999999999987 -3.022956240497109e-09
0.7500213356793322 1.0000000000000053 -3.915462566438301e-09
1.0 1.0 -4.223131400429942e-09
1.2499786643206494 1.0000000000000056 -3.915462573141742e-09
1.4999572790869822 0.9999999999999986 -3.0229562502247046e-09
1.7499355292172878 1.0000000000000038 -1.6502611196733026e-09
1.9999138546765445 0.9999999999999976 0.0
8.632253582750513e-05 1.250007093936085 0.0
0.2500643026719495 1.2500067562789063 -1.5362590369314907e-09
0.5000428551287737 1.2500064006235263 -2.8031891916153684e-09
0.7500213714346775 1.2500061108725853 -3.6223403920695815e-09
0.9999999999999915 1.2500060751139923 -3.903810560875807e-09
1.249978628565329 1.2500061108725897 -3.622340398838467e-09
1.499957144871201 1.250006400623524 -2.803189201340434e-09
1.7499356973280527 1.2500067562789012 -1.5362590440968108e-09
1.9999136774641517 1.2500070939361014 0.0
8.693072697003725e-05 1.5000153238034826 0.0
0.25006452225684683 1.500013774508514 -1.2023967449072877e-09
0.5000427395949121 1.5000122185106741 -2.1698248766196107e-09
0.7500216611381313 1.5000123340033582 -2.778015927147805e-09
1.0000000000000022 1.5000121997379527 -2.991487891289952e-09
1.249978338861844 1.5000123340033475 -2.778015933738545e-09
1.4999572604051283 1.5000122185106881 -2.1698248865490086e-09
1.7499354777431049 1.5000137745085196 -1.2023967527091241e-09
1.9999130692730502 1.500015323803429 0.0
7.788729384272491e-05 1.7500146565079042 0.0
0.25006607637011785 1.750020294682247 -6.851697655286175e-10
0.5000442956178524 1.7500187407231265 -1.1724114530496e-09
0.7500220168778949 1.7500185209248065 -1.5049707348464779e-09
0.9999999999999928 1.7500186890272325 -1.6202578057079295e-09
1.2499779831221167 1.7500185209248167 -1.5049707391029586e-09
1.4999557043820708 1.7500187407230996 -1.172411461695492e-09
1.749933923630018 1.750020294682244 -6.851697755787679e-10
1.9999221127058693 1.7500146565081145 0.0
0.00016682341921331025 2.000105761385417 0.0
0.25006044064875815 2.000016847688741 0.0
0.5000458450587343 2.0000258883042688 0.0
0.7500223546474161 2.0000252802641043 0.0
1.0 2.000025102990892 0.0
1.2499776453525586 2.0000252802641083 0.0
1.4999541549413666 2.0000258883042394 0.0
1.7499395593508562 2.0000168476889137 0.0
1.9998331765820303 2.0001057613844013 0.0

CELLS 64 320
4 0 1 10 9
4 1 2 11 10
4 2 3 12 11
4 3 4 13 12
4 4 5 14 13
4 5 6 15 14
4 6 7 16 15
4 7 8 17 16
4 9 10 19 18
4 10 11 20 19
4 11 12 21 20
4 12 13 22 21
4 13 14 23 22
4 14 15 24 23
4 15 16 25 24
4 16 17 26 25
4 18 19 28 27
4 19 20 29 28
4 20 21 30 29
4 21 22 31 30
4 22 23 32 31
4 23 24 33 32
4 24 25 34 33
4 25 26 35 34
4 27 28 37 36
4 28 29 38 37
4 29 30 39 38
4 30 31 40 39
4 31 32 41 40
4 32 33 42 41
4 33 34 43 42
4 34 35 44 43
4 36 37 46 45
4 37 38 47 46
4 38 39 48 47
4 39 40 49 48
4 40 41 50 49
4 41 42 51 50
4 42 43 52 51
4 43 44 53 52
4 45 46 55 54
4 46 47 56 55
4 47 48 57 56
4 48 49 58 57
4 49 50 59 58
4 50 51 60 59
4 51 52 61 60
4 52 53 62 61
4 54 55 64 63
4 55 56 65 64
4 56 57 66 65
4 57 58 67 66
4 58 59 68 67
4 59 60 69 68
4 60 61 70 69
4 61 62 71 70
4 63 64 73 72
4 64 65 74 73
4 65 66 75 74
4 66 67 76 75
4 67 68 77 76
4 68 69 78 77
4 69 70 79 78
4 70 71 80 79

CELL_TYPES 64
9
9
9
9
9
9
9
9
9
9
9
9
9
9
9
9
9
9
9
9
9
9
9
9
9
9
9
9
9
9
9
9
9
9
9
9
9
9
9
9
9
9
9
9
9
9
9
9
9
9
9
9
9
9
9
9
9
9
9
9
9
9
9
9

POINT_DATA 81
VECTORS DISPLACEMENT float
0.0001668234202793794 -0.00010576138674244449 0.0
6.0440648618142185e-05 -1.6847688388106544e-05 0.0
4.5845058776444126e-05 -2.588830434917385e-05 0.0
2.2354647394082448e-05 -2.5280264061133763e-05 0.0
0.0 -2.510299090428484e-05 0.0
-2.2354647419496075e-05 -2.528026406473734e-05 0.0
-4.584505867532153e-05 -2.588830431963291e-05 0.0
-6.044064900366004e-05 -1.6847688560733082e-05 0.0
-0.00016682341903563768 -0.00010576138572657009 0.0
7.788729365175231e-05 -1.4656507636681646e-05 0.0
6.607637010305513e-05 -2.0294682375843126e-05 -6.851697388469598e-10
4.429561786053809e-05 -1.874072303632479e-05 -1.1724114296823703e-09
2.2016877894711385e-05 -1.8520924825655137e-05 -1.5049707184979098e-09
-7.109556835020355e-15 -1.868902721036258e-05 -1.6202577918722082e-09
-2.201687788290763e-05 -1.8520924835920183e-05 -1.504970722733035e-09
-4.429561793742241e-05 -1.8740723009613205e-05 -1.1724114382938158e-09
-6.607636996727221e-05 -2.029468237281777e-05 -6.851697489308385e-10
-7.788729393977695e-05 -1.4656507846845377e-05 0.0
8.693072699185415e-05 -1.5323803483494133e-05 0.0
6.452225685046462e-05 -1.377450849842774e-05 -1.2023967213700387e-09
4.2739594892224164e-05 -1.2218510704645808e-05 -2.169824848818721e-09
2.1661138138705842e-05 -1.2334003327461198e-05 -2.7780159049022853e-09
2.1027394573277404e-15 -1.2199737961195608e-05 -2.991487871989856e-09
-2.1661138163422873e-05 -1.2334003316639522e-05 -2.7780159114924386e-09
-4.273959485162446e-05 -1.2218510718735644e-05 -2.1698248587784755e-09
-6.452225689867227e-05 -1.3774508503956586e-05 -1.202396729255277e-09
-8.69307269716734e-05 -1.5323803429925425e-05 0.0
8.632253582743443e-05 -7.093936074895035e-06 0.0
6.430267195353437e-05 -6.756278911849981e-06 -1.5362590247055513e-09
4.285512877784365e-05 -6.400623515986494e-06 -2.8031891746389086e-09
2.1371434671757436e-05 -6.110872589852697e-06 -3.6223403770046423e-09
-8.599898956576598e-15 -6.075113975101011e-06 -3.903810547494427e-09
-2.137143466532019e-05 -6.110872594213903e-06 -3.6223403837881404e-09
-4.28551288029489e-05 -6.4006235135798316e-06 -2.8031891844046323e-09
-6.430267195112167e-05 -6.756278906437831e-06 -1.5362590319173511e-09
-8.632253584820922e-05 -7.0939360913819845e-06 0.0
8.614532345546487e-05 -2.4643257097561808e-15 0.0
6.447078269797984e-05 3.670165255307931e-15 -1.6502611127854702e-09
4.272091301995428e-05 -1.322565906103751e-15 -3.022956240497109e-09
2.133567933217934e-05 5.420722409261465e-15 -3.915462566438301e-09
0.0 0.0 -4.223131400429942e-09
-2.1335679350591303e-05 5.4586150235020806e-15 -3.915462573141742e-09
-4.272091301788288e-05 -1.483171913434371e-15 -3.0229562502247046e-09
-6.447078271211341e-05 3.674936924998008e-15 -1.6502611196733026e-09
-8.614532345545102e-05 -2.4611575607168123e-15 0.0
8.632253582750513e-05 7.0939360849525715e-06 0.0
6.430267194953838e-05 6.756278906418858e-06 -1.5362590369314907e-09
4.2855128773632534e-05 6.4006235262407e-06 -2.8031891916153684e-09
2.137143467747695e-05 6.110872585368291e-06 -3.6223403920695815e-09
-8.60060467318938e-15 6.075113992280279e-06 -3.903810560875807e-09
-2.137143467117568e-05 6.110872589633955e-06 -3.622340398838467e-09
-4.285512879887917e-05 6.400623524046823e-06 -2.803189201340434e-09
-6.430267194726197e-05 6.756278901155066e-06 -1.5362590440968108e-09
-8.632253584835621e-05 7.093936101429267e-06 0.0
8.693072697003725e-05 1.5323803482501424e-05 0.0
6.452225684685768e-05 1.3774508513958564e-05 -1.2023967449072877e-09
4.273959491208652e-05 1.2218510674064619e-05 -2.1698248766196107e-09
2.1661138131319376e-05 1.2334003358234605e-05 -2.778015927147805e-09
2.146617803307816e-15 1.2199737952713813e-05 -2.991487891289952e-09
-2.166113815594759e-05 1.2334003347537963e-05 -2.778015933738545e-09
-4.273959487160094e-05 1.2218510688017184e-05 -2.1698248865490086e-09
-6.452225689513563e-05 1.3774508519570977e-05 -1.2023967527091241e-09
-8.693072694972493e-05 1.5323803429122604e-05 0.0
7.788729384272491e-05 1.4656507904281738e-05 0.0
6.607637011787149e-05 2.0294682247015117e-05 -6.851697655286175e-10
4.429561785235175e-05 1.8740723126430063e-05 -1.1724114530496e-09
2.201687789490801e-05 1.8520924806522844e-05 -1.5049707348464779e-09
-7.192455724914455e-15 1.868902723252117e-05 -1.6202578057079295e-09
-2.201687788322797e-05 1.8520924816769893e-05 -1.5049707391029586e-09
-4.4295617929126984e-05 1.8740723099608233e-05 -1.172411461695492e-09
-6.607636998203425e-05 2.029468224403436e-05 -6.851697755787679e-10
-7.78872941306284e-05 1.4656508114481065e-05 0.0
0.00016682341921331025 0.0001057613854170906 0.0
6.04406487581722e-05 1.6847688740909316e-05 0.0
4.584505873431017e-05 2.5888304268936456e-05 0.0
2.2354647416057013e-05 2.5280264104511937e-05 0.0
0.0 2.5102990892314447e-05 0.0
-2.2354647441443346e-05 2.5280264108268623e-05 0.0
-4.5845058633310384e-05 2.5888304239251976e-05 0.0
-6.044064914376712e-05 1.6847688913657613e-05 0.0
-0.0001668234179696403 0.00010576138440122544 0.0

SCALARS DISPLACEMENT_MAGNITUDE float 1
LOOKUP_TABLE default
0.0001975234782991515
6.274485325032224e-05
5.264953671487595e-05
3.3746437013622764e-05
2.510299090428484e-05
3.374643703315704e-05
5.264953661229696e-05
6.274485366803471e-05
0.00019752347670478135
7.925429785505896e-05
6.912279522127077e-05
4.809694858247875e-05
2.8770950121487756e-05
1.8689027280597252e-05
2.8770950119062962e-05
4.8096948642878506e-05
6.912279509058391e-05
7.925429817698126e-05
8.827100457416935e-05
6.597619809367878e-05
4.445182763508288e-05
2.492654310696317e-05
1.2199738327965763e-05
2.4926543123087525e-05
4.4451827599919915e-05
6.597619814197839e-05
8.827100454499552e-05
8.661353312683531e-05
6.46566386959503e-05
4.3330474862581786e-05
2.222793280671774e-05
6.0751152293766744e-06
2.222793280172751e-05
4.333047488705612e-05
6.465663869298524e-05
8.661353314889064e-05
8.614532345546487e-05
6.447078271910074e-05
4.2720913126907337e-05
2.1335679691456558e-05
4.223131400429942e-09
2.1335679709868524e-05
4.272091312483594e-05
6.44707827332343e-05
8.614532345545102e-05
8.661353312772952e-05
6.465663869140865e-05
4.333047485993158e-05
2.2227932810984023e-05
6.075115246555948e-06
2.2227932806098266e-05
4.3330474884577185e-05
6.465663868859467e-05
8.661353314986004e-05
8.827100455251139e-05
6.597619809339387e-05
4.445182764577428e-05
2.4926543115771454e-05
1.2199738319483973e-05
2.4926543131880496e-05
4.445182761068331e-05
6.597619814177966e-05
8.827100452324094e-05
7.925429809222492e-05
6.91227951976098e-05
4.809694861004846e-05
2.8770950109322063e-05
1.868902730275584e-05
2.8770950106980352e-05
4.8096948670304796e-05
6.912279506688411e-05
7.925429841403475e-05
0.0001975234766891324
6.274485347994132e-05
5.2649536638733895e-05
3.3746437060675e-05
2.5102990892314447e-05
3.374643708030589e-05
5.2649536536191266e-05
6.274485389776072e-05
0.00019752347509482783

VECTORS REACTION float
0.0 0.0 0.0
0.0 0.0 0.0
0.0 0.0 0.0
0.0 0.0 0.0
0.0 0.0 0.0
0.0 0.0 0.0
0.0 0.0 0.0
0.0 0.0 0.0
0.0 0.0 0.0
0.0 0.0 0.0
0.0 0.0 0.0
0.0 0.0 0.0
0.0 0.0 0.0
0.0 0.0 0.0
0.0 0.0 0.0
0.0 0.0 0.0
0.0 0.0 0.0
0.0 0.0 0.0
0.0 0.0 0.0
0.0 0.0 0.0
0.0 0.0 0.0
0.0 0.0 0.0
0.0 0.0 0.0
0.0 0.0 0.0
0.0 0.0 0.0
0.0 0.0 0.0
0.0 0.0 0.0
0.0 0.0 0.0
0.0 0.0 0.0
0.0 0.0 0.0
0.0 0.0 0.0
0.0 0.0 0.0
0.0 0.0 0.0
0.0 0.0 0.0
0.0 0.0 0.0
0.0 0.0 0.0
0.0 0.0 0.0
0.0 0.0 0.0
0.0 0.0 0.0
0.0 0.0 0.0
0.0 0.0 0.0
0.0 0.0 0.0
0.0 0.0 0.0
0.0 0.0 0.0
0.0 0.0 0.0
0.0 0.0 0.0
0.0 0.0 0.0
0.0 0.0 0.0
0.0 0.0 0.0
0.0 0.0 0.0
0.0 0.0 0.0
0.0 0.0 0.0
0.0 0.0 0.0
0.0 0.0 0.0
0.0 0.0 0.0
0.0 0.0 0.0
0.0 0.0 0.0
0.0 0.0 0.0
0.0 0.0 0.0
0.0 0.0 0.0
0.0 0.0 0.0
0.0 0.0 0.0
0.0 0.0 0.0
0.0 0.0 0.0
0.0 0.0 0.0
0.0 0.0 0.0
0.0 0.0 0.0
0.0 0.0 0.0
0.0 0.0 0.0
0.0 0.0 0.0
0.0 0.0 0.0
0.0 0.0 0.0
0.0 0.0 0.0
0.0 0.0 0.0
0.0 0.0 0.0
0.0 0.0 0.0
0.0 0.0 0.0
0.0 0.0 0.0
0.0 0.0 0.0
0.0 0.0 0.0
0.0 0.0 0.0

VECTORS ROTATION float
0.0 0.0 0.0009218605921554779
-2.878432314670143e-09 0.0 -0.00010748164888357648
-4.80631845621641e-09 0.0 1.0540401039716734e-05
-6.181957839933469e-09 0.0 -8.166691903535416e-07
-6.6574652502371145e-09 0.0 -6.469359952734987e-15
-6.181957860029849e-09 0.0 8.166691497766195e-07
-4.806318492109285e-09 0.0 -1.0540400418916365e-05
-2.8784323944771077e-09 0.0 0.0001074816459139928
0.0 0.0 -0.0009218605806429537
0.0 2.910313490846209e-09 -0.00010750819192251748
-2.4778549840558352e-09 2.3683012178745874e-09 5.2108866190456936e-05
-4.4709587365439e-09 1.6351997147340753e-09 -2.491077596396442e-07
-5.7100830221776034e-09 9.306686148219961e-10 2.079619673851022e-06
-6.14461135145562e-09 8.497633570219262e-18 1.0643701660191452e-14
-5.710083039903207e-09 -9.306685987480546e-10 -2.0796196760439222e-06
-4.4709587479249265e-09 -1.6351997003544388e-09 2.4910761107499466e-07
-2.4778550049926252e-09 -2.3683012099797734e-09 -5.210886533194349e-05
0.0 -2.910313546577593e-09 0.00010750818973229182
0.0 4.9811965780503595e-09 1.0542939489111847e-05
-1.7092531460835614e-09 4.462210316278823e-09 -2.5116107309441025e-07
-3.3464492310201588e-09 3.1896750731961463e-09 -1.3678277712453326e-06
-4.347888124496584e-09 1.667759528513653e-09 1.1711732333990329e-06
-4.688365253234131e-09 1.4156151896392547e-17 -1.0717080489094747e-14
-4.3478881304423056e-09 -1.667759506541721e-09 -1.1711732347967643e-06
-3.3464492293222506e-09 -3.1896750694978065e-09 1.3678278328834173e-06
-1.7092531362927593e-09 -4.4622103507321555e-09 2.5116080017374464e-07
0.0 -4.981196616219479e-09 -1.0542938879221916e-05
0.0 6.33001473964625e-09 -8.173151511894009e-07
-9.160725696822683e-10 5.75582669330656e-09 2.079366586326335e-06
-1.7269449003358508e-09 4.25466998344885e-09 1.1711622785113814e-06
-2.3277861109079893e-09 2.2343969763139064e-09 1.1865288206559774e-08
-2.525747635374613e-09 1.5050210147096605e-17 4.007653005910425e-15
-2.327786110409479e-09 -2.234396954987314e-09 -1.1865269211185037e-08
-1.7269449005317627e-09 -4.254669981650049e-09 -1.1711623086683687e-06
-9.160725658972777e-10 -5.755826711395263e-09 -2.079366534208348e-06
0.0 -6.330014771349073e-09 8.173150088638116e-07
0.0 6.791333066925712e-09 2.3171963149001522e-14
-2.4666036632215916e-17 6.206252863241141e-09 4.103474640135339e-16
-3.622402582924081e-17 4.627409586111008e-09 -1.7418705436400645e-16
-3.275521111398701e-17 2.440449010659657e-09 6.539996133384256e-15
-2.930845800118025e-17 1.468213745816166e-17 -3.0276051563760777e-17
-3.271286605902759e-17 -2.4404489888552474e-09 -6.5599901761186855e-15
-3.6126909864262895e-17 -4.627409585793086e-09 1.724203132096215e-16
-2.457843593332617e-17 -6.2062528863646736e-09 -4.3212184738745605e-16
0.0 -6.7913330981576484e-09 -2.318548448450016e-14
0.0 6.330014794137991e-09 8.173151439481316e-07
9.160725183637651e-10 5.755826726310057e-09 -2.0793666089870953e-06
1.7269448397821391e-09 4.2546699845050374e-09 -1.1711622451916245e-06
2.327786061569311e-09 2.2343969650802908e-09 -1.1865286847453263e-08
2.5257475929433937e-09 1.5028264064784183e-17 -4.006778062698434e-15
2.3277860610753895e-09 -2.2343969438382517e-09 1.1865267866101316e-08
1.7269448400744881e-09 -4.254669982804425e-09 1.1711622754033697e-06
9.160725147973474e-10 -5.755826744314077e-09 2.0793665568769647e-06
0.0 -6.330014825601111e-09 -8.173150015806467e-07
0.0 4.981196691993143e-09 -1.0542939502412985e-05
1.709253104560599e-09 4.46221038613735e-09 2.5116100723178086e-07
3.346449211013588e-09 3.18967506056518e-09 1.367827768387463e-06
4.347888121591537e-09 1.6677595063030694e-09 -1.1711732670224991e-06
4.688365251592766e-09 1.416497738947241e-17 1.0762584561641791e-14
4.347888127428898e-09 -1.6677594843624112e-09 1.1711732684901476e-06
3.3464492090916843e-09 -3.1896750571137497e-09 -1.367827830021802e-06
1.7092530947306604e-09 -4.462210420559005e-09 -2.5116073422551934e-07
0.0 -4.981196729686474e-09 1.0542938892527088e-05
0.0 2.91031362842066e-09 0.00010750818960071484
2.4778550418874493e-09 2.3683012360961653e-09 -5.2108865349279385e-05
4.47095878921553e-09 1.6351996806729748e-09 2.491075418268204e-07
5.710083073931347e-09 9.30668596498145e-10 -2.079619578605131e-06
6.144611392940066e-09 8.531565121257266e-18 -1.0634378426769309e-14
5.710083091652402e-09 -9.30668580303034e-10 2.0796195808170055e-06
4.470958800499355e-09 -1.6351996664580365e-09 -2.491073932915238e-07
2.477855062606351e-09 -2.3683012283230295e-09 5.210886449071668e-05
0.0 -2.9103136838915005e-09 -0.0001075081874103925
0.0 0.0 -0.0009218605803747205
2.878432474558864e-09 0.0 0.00010748164711903338
4.8063185600478414e-09 0.0 -1.0540400549480134e-05
6.1819579144636395e-09 0.0 8.166689420845125e-07
6.6574653106396726e-09 0.0 6.3868265606243e-15
6.181957934691834e-09 0.0 -8.166689017374649e-07
4.806318596195904e-09 0.0 1.0540399928646297e-05
2.878432554270054e-09 0.0 -0.00010748164414956496
0.0 0.0 0.0009218605688620993
