# vtk DataFile Version 3.0
Kratos Results - Step 1
ASCII
DATASET UNSTRUCTURED_GRID
POINTS 81 float
3.825274608801252e-06 -2.425264236098627e-06 0.0
0.2500013860789608 -3.864351593214924e-07 0.0
0.5000010514167937 -5.937694122136672e-07 0.0
0.7500005126839326 -5.798291915982698e-07 0.0
1.0 -5.757629378887813e-07 0.0
1.2499994873160674 -5.798291916147545e-07 0.0
1.4999989485832064 -5.937694121898676e-07 0.0
1.749998613921039 -3.86435159396143e-07 0.0
1.9999961747253918 -2.425264235502134e-06 0.0
1.786433742523062e-06 0.24999966392230968 0.0
0.250001515457757 0.24999953454222337 -4.9287115339507154e-14
0.5000010158923519 0.24999957015203306 -4.666405414668705e-14
0.750000504948589 0.2499995751959743 -5.038253962414206e-14
1.0 0.24999957133850387 -5.129000889562341e-14
1.249999495051411 0.24999957519597432 -5.0382544216355496e-14
1.499998984107648 0.24999957015203308 -4.666406370274449e-14
1.7499984845422432 0.24999953454222337 -4.9287125912197696e-14
1.9999982135662573 0.2499996639223096 0.0
1.9937694767267955e-06 0.4999996485832615 0.0
0.2500014798478664 0.49999968410762674 -5.82341451970388e-14
0.5000009802503921 0.49999971974957336 -8.746917650381663e-14
0.7500004968003511 0.4999997170957011 -9.116459007151536e-14
1.0 0.49999972017568983 -9.309513686378079e-14
1.249999503199649 0.4999997170957012 -9.11645964427701e-14
1.499999019749608 0.49999971974957336 -8.746918679314818e-14
1.7499985201521335 0.4999996841076268 -5.823415356687927e-14
1.9999980062305232 0.49999964858326157 0.0
1.9798291767397685e-06 0.749999837316139 0.0
0.25000147480403734 0.7499998450514236 -5.952612526869719e-14
0.5000009829042859 0.7499998531996172 -9.800328319355093e-14
0.750000490164797 0.7499998598351963 -1.148517481189505e-13
1.0 0.7499998606529503 -1.1866087742647828e-13
1.249999509835203 0.7499998598351963 -1.1485175357419773e-13
1.499999017095714 0.7499998531996173 -9.8003291175448e-14
1.7499985251959629 0.7499998450514236 -5.952613116764778e-14
1.9999980201708232 0.749999837316139 0.0
1.975762954915708e-06 1.0 0.0
0.2500014786615121 1.0 -5.852029128311164e-14
0.5000009798243233 1.0 -1.006335803744177e-13
0.7500004893470446 1.0 -1.2139525819049436e-13
1.0 1.0 -1.269933025528247e-13
1.2499995106529553 1.0 -1.2139526272754137e-13
1.4999990201756768 1.0 -1.0063358711707328e-13
1.7499985213384879 1.0 -5.852029617291812e-14
1.999998024237045 1.0 0.0
1.979829176728728e-06 1.250000162683861 0.0
0.2500014748040373 1.2500001549485764 -5.952612745512743e-14
0.5000009829042859 1.2500001468003827 -9.800328627936827e-14
0.750000490164797 1.2500001401648038 -1.148517503944307e-13
1.0 1.2500001393470497 -1.1866087905864538e-13
1.249999509835203 1.2500001401648038 -1.1485175531124531e-13
1.499999017095714 1.2500001468003827 -9.800329348315816e-14
1.7499985251959629 1.2500001549485764 -5.952613283741964e-14
1.9999980201708234 1.2500001626838613 0.0
1.9937694767169783e-06 1.5000003514167384 0.0
0.25000147984786636 1.5000003158923731 -5.823414984624002e-14
0.5000009802503921 1.5000002802504266 -8.746918115847385e-14
0.7500004968003511 1.5000002829042989 -9.116459334078184e-14
1.0 1.5000002798243102 -9.309513935672098e-14
1.249999503199649 1.5000002829042989 -9.116459895290722e-14
1.499999019749608 1.5000002802504266 -8.746919037189218e-14
1.7499985201521335 1.5000003158923731 -5.823415747902707e-14
1.9999980062305234 1.5000003514167384 0.0
1.7864337426399738e-06 1.7500003360776906 0.0
0.250001515457757 1.7500004654577765 -4.92871202402887e-14
0.5000010158923519 1.750000429847967 -4.6664057966687554e-14
0.750000504948589 1.7500004248040257 -5.0382542109049234e-14
1.0 1.750000428661496 -5.129001063609429e-14
1.249999495051411 1.7500004248040257 -5.0382546242410176e-14
1.499998984107648 1.750000429847967 -4.666406680793299e-14
1.749998484542243 1.7500004654577765 -4.9287130266309e-14
1.999998213566257 1.7500003360776906 0.0
3.825274608247312e-06 2.0000024252642357 0.0
0.25000138607896083 2.0000003864351594 0.0
0.5000010514167939 2.0000005937694123 0.0
0.7500005126839328 2.0000005798291913 0.0
1.0 2.0000005757629378 0.0
1.2499994873160674 2.0000005798291913 0.0
1.4999989485832061 2.0000005937694123 0.0
1.749998613921039 2.0000003864351594 0.0
1.9999961747253925 2.000002425264235 0.0

CELLS 64 320
4 0 1 10 9
4 1 2 11 10
4 2 3 12 11
4 3 4 13 12
4 4 5 14 13
4 5 6 15 14
4 6 7 16 15
4 7 8 17 16
4 9 10 19 18
4 10 11 20 19
4 11 12 21 20
4 12 13 22 21
4 13 14 23 22
4 14 15 24 23
4 15 16 25 24
4 16 17 26 25
4 18 19 28 27
4 19 20 29 28
4 20 21 30 29
4 21 22 31 30
4 22 23 32 31
4 23 24 33 32
4 24 25 34 33
4 25 26 35 34
4 27 28 37 36
4 28 29 38 37
4 29 30 39 38
4 30 31 40 39
4 31 32 41 40
4 32 33 42 41
4 33 34 43 42
4 34 35 44 43
4 36 37 46 45
4 37 38 47 46
4 38 39 48 47
4 39 40 49 48
4 40 41 50 49
4 41 42 51 50
4 42 43 52 51
4 43 44 53 52
4 45 46 55 54
4 46 47 56 55
4 47 48 57 56
4 48 49 58 57
4 49 50 59 58
4 50 51 60 59
4 51 52 61 60
4 52 53 62 61
4 54 55 64 63
4 55 56 65 64
4 56 57 66 65
4 57 58 67 66
4 58 59 68 67
4 59 60 69 68
4 60 61 70 69
4 61 62 71 70
4 63 64 73 72
4 64 65 74 73
4 65 66 75 74
4 66 67 76 75
4 67 68 77 76
4 68 69 78 77
4 69 70 79 78
4 70 71 80 79

CELL_TYPES 64
9
9
9
9
9
9
9
9
9
9
9
9
9
9
9
9
9
9
9
9
9
9
9
9
9
9
9
9
9
9
9
9
9
9
9
9
9
9
9
9
9
9
9
9
9
9
9
9
9
9
9
9
9
9
9
9
9
9
9
9
9
9
9
9

POINT_DATA 81
VECTORS DISPLACEMENT float
3.825274608801252e-06 -2.425264236098627e-06 0.0
1.3860789607547113e-06 -3.864351593214924e-07 0.0
1.051416793794799e-06 -5.937694122136672e-07 0.0
5.126839326245814e-07 -5.798291915982698e-07 0.0
0.0 -5.757629378887813e-07 0.0
-5.126839326034033e-07 -5.798291916147545e-07 0.0
-1.051416793693581e-06 -5.937694121898676e-07 0.0
-1.3860789609254945e-06 -3.86435159396143e-07 0.0
-3.82527460821466e-06 -2.425264235502134e-06 0.0
1.786433742523062e-06 -3.360776903062786e-07 0.0
1.515457757014075e-06 -4.65457776634254e-07 -4.9287115339507154e-14
1.0158923519589838e-06 -4.2984796693191807e-07 -4.666405414668705e-14
5.049485890063573e-07 -4.248040256996008e-07 -5.038253962414206e-14
-3.2279528512866923e-18 -4.2866149612569837e-07 -5.129000889562341e-14
-5.049485889865077e-07 -4.2480402569196375e-07 -5.0382544216355496e-14
-1.0158923519538033e-06 -4.298479669099362e-07 -4.666406370274449e-14
-1.5154577568696727e-06 -4.654577766266688e-07 -4.9287125912197696e-14
-1.7864337426782554e-06 -3.3607769040956215e-07 0.0
1.9937694767267955e-06 -3.514167384722935e-07 0.0
1.4798478664052807e-06 -3.1589237327218703e-07 -5.82341451970388e-14
9.802503920537502e-07 -2.802504266251863e-07 -8.746917650381663e-14
4.968003510565143e-07 -2.829042988606308e-07 -9.116459007151536e-14
-1.2619366978567193e-17 -2.7982431017303167e-07 -9.309513686378079e-14
-4.968003510226884e-07 -2.8290429884233234e-07 -9.11645964427701e-14
-9.802503919658832e-07 -2.802504266256332e-07 -8.746918679314818e-14
-1.4798478664076462e-06 -3.158923732245826e-07 -5.823415356687927e-14
-1.9937694767408947e-06 -3.5141673845776686e-07 0.0
1.9798291767397685e-06 -1.6268386104351621e-07 0.0
1.474804037337459e-06 -1.5494857636965496e-07 -5.952612526869719e-14
9.829042858749778e-07 -1.4680038282995398e-07 -9.800328319355093e-14
4.901647969450424e-07 -1.4016480370346606e-07 -1.148517481189505e-13
-3.4026501988415934e-17 -1.3934704965079492e-07 -1.1866087742647828e-13
-4.901647968672931e-07 -1.4016480369008585e-07 -1.1485175357419773e-13
-9.829042859381594e-07 -1.4680038276650116e-07 -9.8003291175448e-14
-1.474804037225484e-06 -1.5494857645840996e-07 -5.952613116764778e-14
-1.9798291768419787e-06 -1.6268386109970044e-07 0.0
1.975762954915708e-06 4.7644887657111976e-17 0.0
1.478661512110601e-06 4.3692189391264187e-17 -5.852029128311164e-14
9.798243233084845e-07 -4.292671684879284e-18 -1.006335803744177e-13
4.893470445820791e-07 -1.2410957927246781e-17 -1.2139525819049436e-13
0.0 0.0 -1.269933025528247e-13
-4.893470446221194e-07 -6.94160294789342e-18 -1.2139526272754137e-13
-9.798243233004148e-07 3.4664848349963576e-17 -1.0063358711707328e-13
-1.4786615121065888e-06 6.592961276265599e-17 -5.852029617291812e-14
-1.975762955009905e-06 6.690606153738079e-17 0.0
1.979829176728728e-06 1.6268386107970268e-07 0.0
1.4748040372710493e-06 1.5494857632505873e-07 -5.952612745512743e-14
9.829042858998066e-07 1.468003828078408e-07 -9.800328627936827e-14
4.901647969902648e-07 1.4016480379140674e-07 -1.148517503944307e-13
-2.7228895543620273e-17 1.393470496492821e-07 -1.1866087905864538e-13
-4.901647968973164e-07 1.4016480379087266e-07 -1.1485175531124531e-13
-9.829042859474321e-07 1.4680038280895413e-07 -9.800329348315816e-14
-1.474804037223882e-06 1.5494857635730496e-07 -5.952613283741964e-14
-1.979829176639162e-06 1.6268386117100915e-07 0.0
1.9937694767169783e-06 3.514167384541025e-07 0.0
1.4798478663566066e-06 3.1589237320027415e-07 -5.823414984624002e-14
9.80250392027765e-07 2.8025042656433914e-07 -8.746918115847385e-14
4.968003510781577e-07 2.82904298923284e-07 -9.116459334078184e-14
-9.479074653267506e-18 2.7982431020056373e-07 -9.309513935672098e-14
-4.968003510453828e-07 2.829042988908523e-07 -9.116459895290722e-14
-9.802503920450228e-07 2.802504265636118e-07 -8.746919037189218e-14
-1.4798478664969345e-06 3.158923732326253e-07 -5.823415747902707e-14
-1.993769476655896e-06 3.514167384787659e-07 0.0
1.7864337426399738e-06 3.3607769048880293e-07 0.0
1.5154577570145242e-06 4.654577764778913e-07 -4.92871202402887e-14
1.0158923518944255e-06 4.2984796708376996e-07 -4.6664057966687554e-14
5.049485890200741e-07 4.248040257542693e-07 -5.0382542109049234e-14
-4.659872270510486e-18 4.2866149605789725e-07 -5.129001063609429e-14
-5.049485889942302e-07 4.24804025790692e-07 -5.0382546242410176e-14
-1.0158923520059604e-06 4.298479669759781e-07 -4.666406680793299e-14
-1.515457756955489e-06 4.6545777658013776e-07 -4.9287130266309e-14
-1.7864337428699216e-06 3.360776905983808e-07 0.0
3.825274608247312e-06 2.4252642354517488e-06 0.0
1.3860789608562883e-06 3.8643515938726783e-07 0.0
1.0514167938243967e-06 5.937694121393823e-07 0.0
5.126839327125735e-07 5.798291915185502e-07 0.0
0.0 5.7576293779482e-07 0.0
-5.126839325899317e-07 5.798291915080503e-07 0.0
-1.0514167938449247e-06 5.937694121755745e-07 0.0
-1.3860789610153692e-06 3.864351596299521e-07 0.0
-3.825274607529256e-06 2.4252642350131107e-06 0.0

SCALARS DISPLACEMENT_MAGNITUDE float 1
LOOKUP_TABLE default
4.5293081643490135e-06
1.4389395462654739e-06
1.2074930182631695e-06
7.739810761258374e-07
5.757629378887813e-07
7.739810761241587e-07
1.2074930181633312e-06
1.4389395464500311e-06
4.5293081635342026e-06
1.817771638668223e-06
1.5853274599032961e-06
1.103089545523962e-06
6.598723647722344e-07
4.2866149612570144e-07
6.598723647521286e-07
1.1030895455106253e-06
1.5853274597630309e-06
1.8177716388398364e-06
2.0245025192392192e-06
1.5131879259351099e-06
1.0195249544494425e-06
5.717039715829419e-07
2.798243101730472e-07
5.71703971544493e-07
1.019524954365083e-06
1.5131879259274853e-06
2.0245025192505826e-06
1.9865018519281817e-06
1.4829214442666393e-06
9.93806413538588e-07
5.098114360834003e-07
1.3934704965084546e-07
5.098114360049686e-07
9.938064135917033e-07
1.4829214441645513e-06
1.98650185203465e-06
1.975762954915708e-06
1.478661512110602e-06
9.798243233084898e-07
4.893470445820942e-07
1.269933025528247e-13
4.893470446221345e-07
9.7982432330042e-07
1.4786615121065898e-06
1.975762955009905e-06
1.9865018519201416e-06
1.4829214441959332e-06
9.93806413559878e-07
5.09811436151058e-07
1.3934704964933263e-07
5.098114360615446e-07
9.938064136071454e-07
1.4829214441523938e-06
1.9865018518383542e-06
2.024502519226393e-06
1.5131879258724957e-06
1.0195249544077325e-06
5.717039716327533e-07
2.7982431020057925e-07
5.717039715882238e-07
1.0195249544241253e-06
1.5131879260164854e-06
2.0245025191705194e-06
1.8177716388168653e-06
1.5853274598578168e-06
1.1030895455236802e-06
6.598723648179246e-07
4.286614960579003e-07
6.59872364821596e-07
1.1030895455843945e-06
1.5853274598314031e-06
1.817771639063108e-06
4.5293081635348006e-06
1.4389395463809838e-06
1.2074930182524126e-06
7.739810761244013e-07
5.7576293779482e-07
7.739810760352974e-07
1.2074930182880843e-06
1.4389395465993948e-06
4.529308162693485e-06

VECTORS REACTION float
0.0 0.0 0.0
0.0 0.0 0.0
0.0 0.0 0.0
0.0 0.0 0.0
0.0 0.0 0.0
0.0 0.0 0.0
0.0 0.0 0.0
0.0 0.0 0.0
0.0 0.0 0.0
0.0 0.0 0.0
0.0 0.0 0.0
0.0 0.0 0.0
0.0 0.0 0.0
0.0 0.0 0.0
0.0 0.0 0.0
0.0 0.0 0.0
0.0 0.0 0.0
0.0 0.0 0.0
0.0 0.0 0.0
0.0 0.0 0.0
0.0 0.0 0.0
0.0 0.0 0.0
0.0 0.0 0.0
0.0 0.0 0.0
0.0 0.0 0.0
0.0 0.0 0.0
0.0 0.0 0.0
0.0 0.0 0.0
0.0 0.0 0.0
0.0 0.0 0.0
0.0 0.0 0.0
0.0 0.0 0.0
0.0 0.0 0.0
0.0 0.0 0.0
0.0 0.0 0.0
0.0 0.0 0.0
0.0 0.0 0.0
0.0 0.0 0.0
0.0 0.0 0.0
0.0 0.0 0.0
0.0 0.0 0.0
0.0 0.0 0.0
0.0 0.0 0.0
0.0 0.0 0.0
0.0 0.0 0.0
0.0 0.0 0.0
0.0 0.0 0.0
0.0 0.0 0.0
0.0 0.0 0.0
0.0 0.0 0.0
0.0 0.0 0.0
0.0 0.0 0.0
0.0 0.0 0.0
0.0 0.0 0.0
0.0 0.0 0.0
0.0 0.0 0.0
0.0 0.0 0.0
0.0 0.0 0.0
0.0 0.0 0.0
0.0 0.0 0.0
0.0 0.0 0.0
0.0 0.0 0.0
0.0 0.0 0.0
0.0 0.0 0.0
0.0 0.0 0.0
0.0 0.0 0.0
0.0 0.0 0.0
0.0 0.0 0.0
0.0 0.0 0.0
0.0 0.0 0.0
0.0 0.0 0.0
0.0 0.0 0.0
0.0 0.0 0.0
0.0 0.0 0.0
0.0 0.0 0.0
0.0 0.0 0.0
0.0 0.0 0.0
0.0 0.0 0.0
0.0 0.0 0.0
0.0 0.0 0.0
0.0 0.0 0.0

VECTORS ROTATION float
0.0 0.0 2.1137576447767762e-05
-2.3453933631211967e-13 0.0 -2.4653447207940023e-06
-1.8811421180485787e-13 0.0 2.4178181725421895e-07
-2.0672866389715327e-13 0.0 -1.8724294294731576e-08
-2.122589725391073e-13 0.0 3.081050259818292e-18
-2.0672868468893808e-13 0.0 1.872429420425139e-08
-1.8811425858509916e-13 0.0 -2.4178181687385447e-07
-2.3453939166695917e-13 0.0 2.4653447193557242e-06
0.0 0.0 -2.113757644156383e-05
0.0 2.5049478185905637e-13 -2.4653586757954248e-06
-1.1608484470088412e-13 8.388044690380425e-14 1.1945403880365034e-06
-1.887278843490022e-13 -2.100497708065932e-14 -5.835879847968362e-09
-1.8938650426612579e-13 1.804817484665295e-14 4.764561753952455e-08
-1.9169887098853475e-13 8.867948835902475e-21 -5.001573212576917e-18
-1.893865181310269e-13 -1.8048155020415695e-14 -4.764561749579068e-08
-1.8872790519548098e-13 2.100499465452693e-14 5.835879839825868e-09
-1.160848606279916e-13 -8.388046630991028e-14 -1.1945403874805163e-06
0.0 -2.504948345343404e-13 2.465358674670591e-06
0.0 2.592141057459533e-13 2.4178315182940633e-07
-3.2328505796626637e-15 1.8364218506820662e-13 -5.836959579954459e-09
-1.0223759327685327e-13 5.1372348891390186e-14 -3.1370084781370936e-08
-1.3188670549188927e-13 4.9435156269879006e-15 2.6830783644281954e-08
-1.3727832901014363e-13 1.3437738655614657e-20 -7.297247177451036e-18
-1.318867059027376e-13 -4.943493082431271e-15 -2.6830783652665853e-08
-1.0223758529947518e-13 -5.1372342749540324e-14 3.13700848330459e-08
-3.2328345427844894e-15 -1.8364220784499016e-13 5.836959418452506e-09
0.0 -2.59214145030983e-13 -2.417831515554666e-07
0.0 2.5467163243062124e-13 -1.872463351696971e-08
5.410241896335178e-16 2.0420133489159857e-13 4.764548453223322e-08
-1.4869435874910066e-14 1.0599974873406235e-13 2.6830777871478655e-08
-5.725714436236883e-14 3.5240674950106796e-14 2.7106276316883875e-10
-6.744697173035833e-14 1.1935256266613232e-20 -7.59153901269212e-19
-5.725713911368515e-14 -3.524065728313847e-14 -2.7106273903182816e-10
-1.4869427720027726e-14 -1.0599974737705667e-13 -2.683077792015271e-08
5.410304856935536e-16 -2.0420135249189038e-13 -4.7645484515829787e-08
0.0 -2.546716589580451e-13 1.8724633494156112e-08
0.0 2.4713993293524717e-13 -2.3084712922519336e-17
-4.133034778220213e-21 2.0889008121244033e-13 2.8925507536949337e-17
-6.713849196866788e-21 1.2423196504850266e-13 4.051943599724425e-17
-5.040431089291975e-21 4.804971747610237e-14 6.322298001260809e-18
-3.502757486724313e-21 9.878589728309532e-21 4.5905747103289875e-18
-3.86023052083041e-21 -4.8049702458286475e-14 3.733268888152586e-18
-4.985351153434705e-21 -1.2423196399353747e-13 1.738443325872128e-17
-2.9878344684001162e-21 -2.0889009625738127e-13 -6.901501234042428e-18
0.0 -2.471399548299951e-13 -3.561942457616523e-18
0.0 2.546716421667262e-13 1.872463359858501e-08
-5.410341119558735e-16 2.0420134172629091e-13 -4.764548452147988e-08
1.4869425851027423e-14 1.059997481713603e-13 -2.6830777841180372e-08
5.72571372157059e-14 3.5240671073226016e-14 -2.710627130628742e-10
6.744696611037187e-14 1.0759673894403021e-20 1.8980392256326104e-18
5.725713370803615e-14 -3.5240655164774627e-14 2.710627056677477e-10
1.4869420103329994e-14 -1.0599974674842247e-13 2.68307778585633e-08
-5.410387907260199e-16 -2.042013575680602e-13 4.7645484485975554e-08
0.0 -2.5467166647486085e-13 -1.8724633480945942e-08
0.0 2.592141289463045e-13 -2.417831518662017e-07
3.2328426037062383e-15 1.8364219480228654e-13 5.836959437992534e-09
1.0223759097047805e-13 5.137234360773872e-14 3.1370084770726366e-08
1.3188670489084479e-13 4.943510868378843e-15 -2.6830783668259938e-08
1.3727832866539081e-13 1.176719257385622e-20 2.1596663246532138e-17
1.3188670506528912e-13 -4.943490727791145e-15 2.683078365899127e-08
1.0223758280616598e-13 -5.137233740522942e-14 -3.137008477353582e-08
3.2328266522516034e-15 -1.836422151750938e-13 -5.836959310164542e-09
0.0 -2.592141650115526e-13 2.4178315156947924e-07
0.0 2.5049480726521635e-13 2.465358674482325e-06
1.1608485503901667e-13 8.388045350314824e-14 -1.1945403875905116e-06
1.887278941433388e-13 -2.1004984963301595e-14 5.835879748411198e-09
1.8938651147881135e-13 1.8048170851279834e-14 -4.7645617444260955e-08
1.9169887658156785e-13 7.886043451227943e-21 -1.408326807391135e-17
1.8938652360270244e-13 -1.804815261316141e-14 4.764561746337198e-08
1.887279125826346e-13 2.1005002281444856e-14 -5.8358796636538524e-09
1.160848693488673e-13 -8.388047132110191e-14 1.1945403871437881e-06
0.0 -2.5049485746545674e-13 -2.4653586733489357e-06
0.0 0.0 -2.113757644151999e-05
2.345393607737636e-13 0.0 2.4653447198056398e-06
1.8811422971300703e-13 0.0 -2.417818169296e-07
2.0672867523851888e-13 0.0 1.8724294114808534e-08
2.12258980206085e-13 0.0 -2.1956272038294253e-17
2.0672869414270162e-13 0.0 -1.872429415574499e-08
1.8811427341013063e-13 0.0 2.417818165582408e-07
2.345394136671665e-13 0.0 -2.465344718251249e-06
0.0 0.0 2.113757643540059e-05
