# vtk DataFile Version 3.0
Kratos Results - Step 5
ASCII
DATASET UNSTRUCTURED_GRID
POINTS 81 float
0.0001339198249774126 -8.490246672725443e-05 0.0
0.2500485207738022 -1.3525538280038784e-05 0.0
0.5000368040730753 -2.078324631045078e-05 0.0
0.7500179461409806 -2.029514899471999e-05 0.0
1.0 -2.0152830847488238e-05 0.0
1.2499820538590032 -2.0295148997005995e-05 0.0
1.49996319592699 -2.078324629138843e-05 0.0
1.749951479225949 -1.3525538391519682e-05 0.0
1.9998660801758255 -8.490246607122638e-05 0.0
6.252844381650443e-05 0.24998823426472247 0.0
0.2500530459965649 0.24998370746097753 -1.3902075275911972e-10
0.5000355602686573 0.24998495476373087 -1.9834308382259016e-10
0.7500176750606278 0.2499851312377148 -2.426948327364984e-10
0.9999999999999953 0.24998499627090834 -2.5739369983293895e-10
1.2499823249393798 0.24998513123770816 -2.426948293594932e-10
1.499964439731293 0.24998495476374813 -1.9834307794436227e-10
1.7499469540035226 0.24998370746097948 -1.3902074715152108e-10
1.9999374715559974 0.24998823426458677 0.0
6.978796743687439e-05 0.49998769831583506 0.0
0.25005179859463317 0.49998894202620336 -2.157160423754816e-10
0.500034311416471 0.49999019086216345 -3.6798213124252106e-10
0.7500173895485102 0.4999900981091485 -4.463348007746122e-10
1.0000000000000013 0.49999020590153515 -4.739315213830565e-10
1.249982610451474 0.4999900981091555 -4.4633479545941085e-10
1.4999656885835548 0.49999019086215435 -3.6798212294058643e-10
1.7499482014053356 0.49998894202619987 -2.1571603593100362e-10
1.9999302120325764 0.4999876983158696 0.0
6.9299772895575e-05 0.7499943051073928 0.0
0.2500516222581168 0.7499945761153524 -2.60204717891431e-10
0.5000344041960787 0.7499948615731048 -4.603375043519577e-10
0.7500171570370987 0.7499950941151 -5.782653775967284e-10
0.9999999999999946 0.7499951228053225 -6.16045953313512e-10
1.2499828429629054 0.7499950941150971 -5.782653718304177e-10
1.4999655958039049 0.7499948615731062 -4.603374959793298e-10
1.7499483777418847 0.7499945761153559 -2.6020471185904467e-10
1.999930700227091 0.7499943051073822 0.0
6.915749391984368e-05 0.9999999999999984 0.0
0.25005175723031026 1.0000000000000022 -2.738574074961085e-10
0.5000342964356613 0.9999999999999991 -4.912457237508531e-10
0.7500171283489874 1.0000000000000036 -6.224568938555242e-10
1.0 1.0 -6.652658989761854e-10
1.2499828716510009 1.0000000000000033 -6.224568881044991e-10
1.49996570356434 0.999999999999999 -4.912457155043494e-10
1.7499482427696806 1.0000000000000024 -2.7385740158621687e-10
1.9999308425060802 0.9999999999999984 0.0
6.929977289561536e-05 1.2500056948926135 0.0
0.25005162225811417 1.2500054238846443 -2.602047223692034e-10
0.5000344041960761 1.250005138426902 -4.6033751063378693e-10
0.7500171570371024 1.250004905884897 -5.782653836134677e-10
0.9999999999999946 1.2500048771946886 -6.160459588785736e-10
1.2499828429629019 1.2500049058848999 -5.78265377850317e-10
1.4999655958039078 1.2500051384269004 -4.6033750226227897e-10
1.7499483777418874 1.2500054238846408 -2.602047163350469e-10
1.999930700227091 1.2500056948926241 0.0
6.978796742278813e-05 1.5000123016841644 0.0
0.2500517985946308 1.5000110579738066 -2.157160507217009e-10
0.500034311416484 1.5000098091378167 -3.6798214189601814e-10
0.7500173895485054 1.5000099018908712 -4.4633480975850195e-10
1.0000000000000013 1.5000097940984596 -4.739315293473617e-10
1.2499826104514788 1.5000099018908644 -4.4633480445360776e-10
1.4999656885835422 1.5000098091378258 -3.6798213360381555e-10
1.7499482014053382 1.5000110579738102 -2.1571604427808848e-10
1.9999302120325904 1.5000123016841296 0.0
6.252844393983291e-05 1.7500117657354504 0.0
0.2500530459965745 1.750016292538939 -1.3902076233271108e-10
0.500035560268652 1.7500150452363272 -1.9834309294492875e-10
0.750017675060628 1.7500148687622727 -2.4269483932218755e-10
0.9999999999999953 1.750015003729106 -2.5739370557495317e-10
1.2499823249393796 1.7500148687622796 -2.426948359515924e-10
1.4999644397312983 1.75001504523631 -1.9834308707383206e-10
1.7499469540035133 1.7500162925389373 -1.390207567293824e-10
1.9999374715558742 1.750011765735586 0.0
0.00013391982428923862 2.0000849024658716 0.0
0.25004852077389267 2.0000135255385074 0.0
0.5000368040730481 2.0000207832462586 0.0
0.7500179461409947 2.0000202951490227 0.0
1.0 2.00002015283084 0.0
1.249982053858989 2.0000202951490254 0.0
1.499963195927017 2.0000207832462396 0.0
1.7499514792258586 2.0000135255386193 0.0
1.9998660801765138 2.0000849024652156 0.0

CELLS 64 320
4 0 1 10 9
4 1 2 11 10
4 2 3 12 11
4 3 4 13 12
4 4 5 14 13
4 5 6 15 14
4 6 7 16 15
4 7 8 17 16
4 9 10 19 18
4 10 11 20 19
4 11 12 21 20
4 12 13 22 21
4 13 14 23 22
4 14 15 24 23
4 15 16 25 24
4 16 17 26 25
4 18 19 28 27
4 19 20 29 28
4 20 21 30 29
4 21 22 31 30
4 22 23 32 31
4 23 24 33 32
4 24 25 34 33
4 25 26 35 34
4 27 28 37 36
4 28 29 38 37
4 29 30 39 38
4 30 31 40 39
4 31 32 41 40
4 32 33 42 41
4 33 34 43 42
4 34 35 44 43
4 36 37 46 45
4 37 38 47 46
4 38 39 48 47
4 39 40 49 48
4 40 41 50 49
4 41 42 51 50
4 42 43 52 51
4 43 44 53 52
4 45 46 55 54
4 46 47 56 55
4 47 48 57 56
4 48 49 58 57
4 49 50 59 58
4 50 51 60 59
4 51 52 61 60
4 52 53 62 61
4 54 55 64 63
4 55 56 65 64
4 56 57 66 65
4 57 58 67 66
4 58 59 68 67
4 59 60 69 68
4 60 61 70 69
4 61 62 71 70
4 63 64 73 72
4 64 65 74 73
4 65 66 75 74
4 66 67 76 75
4 67 68 77 76
4 68 69 78 77
4 69 70 79 78
4 70 71 80 79

CELL_TYPES 64
9
9
9
9
9
9
9
9
9
9
9
9
9
9
9
9
9
9
9
9
9
9
9
9
9
9
9
9
9
9
9
9
9
9
9
9
9
9
9
9
9
9
9
9
9
9
9
9
9
9
9
9
9
9
9
9
9
9
9
9
9
9
9
9

POINT_DATA 81
VECTORS DISPLACEMENT float
0.0001339198249774126 -8.490246672725443e-05 0.0
4.8520773802171695e-05 -1.3525538280038784e-05 0.0
3.6804073075282074e-05 -2.078324631045078e-05 0.0
1.7946140980561657e-05 -2.029514899471999e-05 0.0
0.0 -2.0152830847488238e-05 0.0
-1.7946140996788213e-05 -2.0295148997005995e-05 0.0
-3.680407301003594e-05 -2.078324629138843e-05 0.0
-4.85207740510039e-05 -1.3525538391519682e-05 0.0
-0.00013391982417457551 -8.490246607122638e-05 0.0
6.252844381650443e-05 -1.1765735277536597e-05 0.0
5.3045996564918896e-05 -1.6292539022453143e-05 -1.3902075275911972e-10
3.556026865725168e-05 -1.5045236269131009e-05 -1.9834308382259016e-10
1.7675060627754525e-05 -1.4868762285211276e-05 -2.426948327364984e-10
-4.652160645159438e-15 -1.500372909165035e-05 -2.5739369983293895e-10
-1.7675060620216508e-05 -1.486876229183817e-05 -2.426948293594932e-10
-3.5560268706890145e-05 -1.5045236251881272e-05 -1.9834307794436227e-10
-5.3045996477349404e-05 -1.6292539020522738e-05 -1.3902074715152108e-10
-6.252844400254245e-05 -1.1765735413236176e-05 0.0
6.978796743687439e-05 -1.2301684164966493e-05 0.0
5.17985946331814e-05 -1.10579737966227e-05 -2.157160423754816e-10
3.431141647107204e-05 -9.809137836521887e-06 -3.6798213124252106e-10
1.7389548510109646e-05 -9.901890851510257e-06 -4.463348007746122e-10
1.353323549905014e-15 -9.794098464861981e-06 -4.739315213830565e-10
-1.7389548525963213e-05 -9.901890844498357e-06 -4.4633479545941085e-10
-3.431141644509309e-05 -9.809137845623452e-06 -3.6798212294058643e-10
-5.1798594664390654e-05 -1.1057973800152792e-05 -2.1571603593100362e-10
-6.978796742368908e-05 -1.2301684130437655e-05 0.0
6.9299772895575e-05 -5.694892607154194e-06 0.0
5.1622258116775236e-05 -5.4238846476637526e-06 -2.60204717891431e-10
3.440419607875153e-05 -5.138426895256637e-06 -4.603375043519577e-10
1.7157037098683695e-05 -4.9058848999984836e-06 -5.782653775967284e-10
-5.457950804053308e-15 -4.877194677421808e-06 -6.16045953313512e-10
-1.7157037094593153e-05 -4.9058849028216605e-06 -5.782653718304177e-10
-3.440419609509787e-05 -5.138426893804026e-06 -4.603374959793298e-10
-5.1622258115175516e-05 -5.423884644126384e-06 -2.6020471185904467e-10
-6.929977290896398e-05 -5.694892617815983e-06 0.0
6.915749391984368e-05 -1.5834971059572937e-15 0.0
5.175723031023026e-05 2.315971024734194e-15 -2.738574074961085e-10
3.429643566138015e-05 -8.672382737413433e-16 -4.912457237508531e-10
1.7128348987325145e-05 3.6327424690963365e-15 -6.224568938555242e-10
0.0 0.0 -6.652658989761854e-10
-1.7128348999110514e-05 3.4402766233635094e-15 -6.224568881044991e-10
-3.429643566015635e-05 -9.491295334337573e-16 -4.912457155043494e-10
-5.175723031942845e-05 2.3600741256435245e-15 -2.7385740158621687e-10
-6.91574939198379e-05 -1.5340381600744098e-15 0.0
6.929977289561536e-05 5.694892613518331e-06 0.0
5.1622258114177826e-05 5.4238846442176685e-06 -2.602047223692034e-10
3.440419607609183e-05 5.138426901964591e-06 -4.6033751063378693e-10
1.7157037102414604e-05 4.905884897030815e-06 -5.782653836134677e-10
-5.462454956859892e-15 4.877194688529265e-06 -6.160459588785736e-10
-1.7157037098234144e-05 4.905884899923826e-06 -5.78265377850317e-10
-3.440419609224667e-05 5.1384269003981355e-06 -4.6033750226227897e-10
-5.162225811260384e-05 5.423884640711982e-06 -2.602047163350469e-10
-6.9299772908954e-05 5.694892624198634e-06 0.0
6.978796742278813e-05 1.2301684164384754e-05 0.0
5.1798594630793106e-05 1.1057973806701922e-05 -2.157160507217009e-10
3.431141648401924e-05 9.809137816642979e-06 -3.6798214189601814e-10
1.7389548505374474e-05 9.901890871299525e-06 -4.4633480975850195e-10
1.4287265984965448e-15 9.79409845948874e-06 -4.739315293473617e-10
-1.738954852118903e-05 9.901890864417164e-06 -4.4633480445360776e-10
-3.431141645791495e-05 9.809137825741853e-06 -3.6798213360381555e-10
-5.1798594661851195e-05 1.1057973810191118e-05 -2.1571604427808848e-10
-6.978796740957313e-05 1.2301684129676755e-05 0.0
6.252844393983291e-05 1.1765735450344102e-05 0.0
5.304599657450429e-05 1.6292538939162086e-05 -1.3902076233271108e-10
3.556026865200485e-05 1.5045236327140636e-05 -1.9834309294492875e-10
1.767506062794542e-05 1.4868762272774933e-05 -2.4269483932218755e-10
-4.658707028572682e-15 1.50037291060247e-05 -2.5739370557495317e-10
-1.7675060620385335e-05 1.4868762279580209e-05 -2.426948359515924e-10
-3.5560268701586336e-05 1.5045236309997889e-05 -1.9834308707383206e-10
-5.304599648676926e-05 1.62925389373255e-05 -1.390207567293824e-10
-6.252844412569298e-05 1.1765735586074125e-05 0.0
0.00013391982428923862 8.490246587143497e-05 0.0
4.852077389264769e-05 1.352553850760661e-05 0.0
3.680407304806214e-05 2.078324625874476e-05 0.0
1.7946140994708202e-05 2.029514902260033e-05 0.0
0.0 2.0152830839932795e-05 0.0
-1.7946141011100953e-05 2.029514902514111e-05 0.0
-3.680407298292238e-05 2.078324623941869e-05 0.0
-4.852077414144116e-05 1.3525538619167232e-05 0.0
-0.00013391982348615438 8.490246521580237e-05 0.0

SCALARS DISPLACEMENT_MAGNITUDE float 1
LOOKUP_TABLE default
0.00015856528112532508
5.037068270458824e-05
4.2266808752631994e-05
2.7091641678054105e-05
2.0152830847488238e-05
2.7091641690515474e-05
4.226680868644529e-05
5.037068297421672e-05
0.00015856528009600642
6.36257716081685e-05
5.549166225103436e-05
3.8612068597903835e-05
2.3097356128955975e-05
1.5003729093858185e-05
2.309735612745359e-05
3.861206863689762e-05
5.549166216675752e-05
6.362577181609168e-05
7.08638965359994e-05
5.2965773764818886e-05
3.568602647371447e-05
2.001109292417318e-05
9.794098476328635e-06
2.001109293448023e-05
3.568602645123799e-05
5.2965773796077397e-05
7.086389651702021e-05
6.953337562052695e-05
5.190641634532128e-05
3.4785803699138375e-05
1.7844652672216197e-05
4.877194716328663e-06
1.784465266905943e-05
3.4785803715090825e-05
5.190641634336068e-05
6.953337563474416e-05
6.915749391984368e-05
5.1757230310954775e-05
3.4296435664898334e-05
1.7128348998635417e-05
6.652658989761854e-10
1.7128349010420786e-05
3.4296435663674534e-05
5.175723032015297e-05
6.91574939198379e-05
6.95333756210884e-05
5.1906416342377994e-05
3.4785803697498736e-05
1.7844652674987465e-05
4.877194727436121e-06
1.7844652671763444e-05
3.4785803713244964e-05
5.1906416340446305e-05
6.953337563525696e-05
7.086389652202603e-05
5.296577376458752e-05
3.568602648069877e-05
2.0011092929850466e-05
9.794098470955395e-06
2.001109294018771e-05
3.568602645810104e-05
5.296577379568966e-05
7.08638965029865e-05
6.36257717613257e-05
5.5491662235742766e-05
3.861206861567522e-05
2.3097356121096245e-05
1.5003729108232536e-05
2.3097356119691803e-05
3.8612068654658214e-05
5.549166215133523e-05
6.362577196907963e-05
0.00015856528008587102
5.037068285284795e-05
4.226680870350543e-05
2.7091641708311094e-05
2.0152830839932795e-05
2.7091641721073414e-05
4.226680863728167e-05
5.037068312246052e-05
0.00015856527905655537

VECTORS REACTION float
0.0 0.0 0.0
0.0 0.0 0.0
0.0 0.0 0.0
0.0 0.0 0.0
0.0 0.0 0.0
0.0 0.0 0.0
0.0 0.0 0.0
0.0 0.0 0.0
0.0 0.0 0.0
0.0 0.0 0.0
0.0 0.0 0.0
0.0 0.0 0.0
0.0 0.0 0.0
0.0 0.0 0.0
0.0 0.0 0.0
0.0 0.0 0.0
0.0 0.0 0.0
0.0 0.0 0.0
0.0 0.0 0.0
0.0 0.0 0.0
0.0 0.0 0.0
0.0 0.0 0.0
0.0 0.0 0.0
0.0 0.0 0.0
0.0 0.0 0.0
0.0 0.0 0.0
0.0 0.0 0.0
0.0 0.0 0.0
0.0 0.0 0.0
0.0 0.0 0.0
0.0 0.0 0.0
0.0 0.0 0.0
0.0 0.0 0.0
0.0 0.0 0.0
0.0 0.0 0.0
0.0 0.0 0.0
0.0 0.0 0.0
0.0 0.0 0.0
0.0 0.0 0.0
0.0 0.0 0.0
0.0 0.0 0.0
0.0 0.0 0.0
0.0 0.0 0.0
0.0 0.0 0.0
0.0 0.0 0.0
0.0 0.0 0.0
0.0 0.0 0.0
0.0 0.0 0.0
0.0 0.0 0.0
0.0 0.0 0.0
0.0 0.0 0.0
0.0 0.0 0.0
0.0 0.0 0.0
0.0 0.0 0.0
0.0 0.0 0.0
0.0 0.0 0.0
0.0 0.0 0.0
0.0 0.0 0.0
0.0 0.0 0.0
0.0 0.0 0.0
0.0 0.0 0.0
0.0 0.0 0.0
0.0 0.0 0.0
0.0 0.0 0.0
0.0 0.0 0.0
0.0 0.0 0.0
0.0 0.0 0.0
0.0 0.0 0.0
0.0 0.0 0.0
0.0 0.0 0.0
0.0 0.0 0.0
0.0 0.0 0.0
0.0 0.0 0.0
0.0 0.0 0.0
0.0 0.0 0.0
0.0 0.0 0.0
0.0 0.0 0.0
0.0 0.0 0.0
0.0 0.0 0.0
0.0 0.0 0.0
0.0 0.0 0.0

VECTORS ROTATION float
0.0 0.0 0.0007400310543470686
-6.143127178756611e-10 0.0 -8.628791657324433e-05
-8.088027100497804e-10 0.0 8.462086627746866e-06
-9.96813286105283e-10 0.0 -6.555784699691462e-07
-1.0585300864884887e-09 0.0 -4.164578976978675e-15
-9.968132721049378e-10 0.0 6.555784439756847e-07
-8.088026812764137e-10 0.0 -8.462086227177806e-06
-6.143126952807382e-10 0.0 8.628791465618946e-05
0.0 0.0 -0.0007400310469135057
0.0 6.310972854009282e-10 -8.630502140583942e-05
-4.403650905675251e-10 3.9154553546988953e-10 4.182885618325046e-05
-7.672388114116661e-10 1.8266583579730332e-10 -2.0084978108570462e-07
-9.189911044357023e-10 1.2981543891820627e-10 1.6691593544337956e-06
-9.73804766099853e-10 -6.8219347699330824e-18 6.854150151605237e-15
-9.189910956770608e-10 -1.2981545267062816e-10 -1.669159355899603e-06
-7.672387863274797e-10 -1.8266584198187062e-10 2.0084968515790856e-07
-4.403650905977344e-10 -3.9154551094488393e-10 -4.182885562891546e-05
0.0 -6.310972538860541e-10 8.630501999166953e-05
0.0 9.155460199252985e-10 8.463722438280346e-06
-2.2542876799631447e-10 7.606533963978677e-10 -2.0217302718093337e-07
-5.350309336758794e-10 4.4892933226258556e-10 -1.0980830482127974e-06
-6.885683417922983e-10 2.0696296398654333e-10 9.400038014173533e-07
-7.354340198165947e-10 -1.1406509557742251e-17 -6.9151997076713284e-15
-6.885683382755366e-10 -2.0696298209909456e-10 -9.400038023229583e-07
-5.350309295283732e-10 -4.489293363204562e-10 1.0980830879072187e-06
-2.2542876960577098e-10 -7.606533857886617e-10 2.0217285099279756e-07
0.0 -9.155459925363296e-10 -8.463722044590205e-06
0.0 1.0849343922284525e-09 -6.559947379917568e-07
-1.1718478440793596e-10 9.495184258865107e-10 1.668996250571651e-06
-2.3738962832823934e-10 6.392765120353633e-10 9.399967445712392e-07
-3.5624918678007404e-10 3.064579063233292e-10 9.517880854781298e-09
-3.905137539570574e-10 -1.2617564589856464e-17 2.581408129594684e-15
-3.5624918646291547e-10 -3.0645792502390547e-10 -9.517868589471873e-09
-2.373896296049268e-10 -6.392765124564073e-10 -9.399967640579287e-07
-1.1718478412968556e-10 -9.495184051297303e-10 -1.6689962169486359e-06
0.0 -1.0849343644620143e-09 6.559946460608657e-07
0.0 1.1370370624930636e-09 1.49348609696989e-14
-9.107024536165178e-18 1.0120556748137607e-09 2.4860769920311296e-16
-1.3138822402169284e-17 7.053860346522999e-10 -1.3192170449779505e-16
-1.302206853947214e-17 3.452969411206391e-10 4.235282667347311e-15
-1.2277848332054064e-17 -1.2693635799915165e-17 -9.714987092905267e-18
-1.3024889310547668e-17 -3.4529695935583846e-10 -4.212771699770734e-15
-1.3135866588699606e-17 -7.053860353122835e-10 9.859553124468228e-17
-9.10125329215229e-18 -1.0120556574379154e-09 -2.58421485604791e-16
0.0 -1.1370370366604594e-09 -1.4887167513791134e-14
0.0 1.0849344117243733e-09 6.559947333694295e-07
1.1718476643204197e-10 9.495184368993773e-10 -1.6689962651904053e-06
2.373896053195593e-10 6.392765132459829e-10 -9.399967230687964e-07
3.562491667043467e-10 3.064579037103385e-10 -9.517879951564422e-09
3.90513736395489e-10 -1.2608671655364917e-17 -2.588548858622755e-15
3.562491663600591e-10 -3.0645792240786283e-10 9.517867753187338e-09
2.3738960657018747e-10 -6.392765136819706e-10 9.39996742557033e-07
1.1718476615271166e-10 -9.495184161456566e-10 1.6689962315331274e-06
0.0 -1.084934383945819e-09 -6.559946414742341e-07
0.0 9.155460609653808e-10 -8.463722446471707e-06
2.254287531661601e-10 7.60653426274285e-10 2.021729844988539e-07
5.350309244026176e-10 4.4892933101085403e-10 1.0980830463013244e-06
6.885683405294123e-10 2.0696295626303767e-10 -9.400038231554784e-07
7.354340191093539e-10 -1.1381786872564366e-17 6.937982951813771e-15
6.885683370028908e-10 -2.069629743524405e-10 9.400038240348239e-07
5.350309202371038e-10 -4.4892933509628093e-10 -1.0980830860481991e-06
2.2542875475752565e-10 -7.606534156882004e-10 -2.0217280837488398e-07
0.0 -9.155460335707853e-10 8.463722052822427e-06
0.0 6.310973282529456e-10 8.630501990589138e-05
4.4036512103810503e-10 3.9154553993217485e-10 -4.1828855640116424e-05
7.672388274487653e-10 1.8266582419261283e-10 2.0084964038355298e-07
9.189911265153524e-10 1.2981543286375308e-10 -1.6691592930392736e-06
9.73804782856215e-10 -6.806558205425094e-18 -6.85647756816158e-15
9.189911177838457e-10 -1.2981544660066694e-10 1.6691592944572288e-06
7.672388023906174e-10 -1.8266583038402505e-10 -2.0084954441342219e-07
4.403651210694529e-10 -3.9154551542276703e-10 4.182885508577714e-05
0.0 -6.310972967549504e-10 -8.630501849226797e-05
0.0 0.0 -0.000740031046740683
6.143127713961499e-10 0.0 8.628791543355101e-05
8.088027511705157e-10 0.0 -8.462086311066509e-06
9.968133164276695e-10 0.0 6.55578310030035e-07
1.0585301116256193e-09 0.0 4.156084320620034e-15
9.968133024524762e-10 0.0 -6.55578283935009e-07
8.088027224272784e-10 0.0 8.462085910630031e-06
6.143127488257987e-10 0.0 -8.62879135162489e-05
0.0 0.0 0.0007400310393070443
