# vtk DataFile Version 3.0
Kratos Results - Step 9
ASCII
DATASET UNSTRUCTURED_GRID
POINTS 81 float
0.0001669068499978407 -0.00010581427556547929 0.0
0.25006047087167166 -1.685611145437004e-05 0.0
0.5000458679821044 -2.5901247980111094e-05 0.0
0.75002236582512 -2.529290355735834e-05 0.0
1.0 -2.5115541775312783e-05 0.0
1.2499776341748545 -2.5292903560949234e-05 0.0
1.4999541320179968 -2.5901247950549498e-05 0.0
1.7499395291279425 -1.68561116272014e-05 0.0
1.999833093151247 -0.00010581427454856189 0.0
7.792623517202912e-05 0.24998533616258925 0.0
0.25006610940824814 0.24997969517030422 -6.906346008513086e-10
0.5000443177662032 0.24998124990729595 -1.1824019958086692e-09
0.750022027886482 0.2499814698153412 -1.5179983101346793e-09
0.9999999999999928 0.24998130162895116 -1.6343508042681966e-09
1.2499779721135298 0.2499814698153309 -1.5179983023406583e-09
1.49995568223372 0.24998124990732268 -1.1824019825899038e-09
1.7499338905918878 0.24997969517030721 -6.906345887810602e-10
1.9999220737645398 0.2499853361623789 0.0
8.697419189541515e-05 0.4999846685338688 0.0
0.25006455451718934 0.4999862186036932 -1.212436370804062e-09
0.5000427609642119 0.4999877753804848 -2.188301460236917e-09
0.7500216719686189 0.4999876598302286 -2.8020889990026277e-09
1.000000000000002 0.49998779416271366 -3.017527124745972e-09
1.2499783280313563 0.4999876598302394 -2.802088986352635e-09
1.4999572390358287 0.4999877753804706 -2.188301440809974e-09
1.7499354454827625 0.4999862186036877 -1.2124363559798546e-09
1.9999130258081248 0.49998466853392237 0.0
8.636569644523933e-05 0.7499929025166229 0.0
0.2500643348226711 0.7499932403428121 -1.5493339336184695e-09
0.5000428765557721 0.749993596176231 -2.8272991494117097e-09
0.7500213821201044 0.749993886072252 -3.6537880800482707e-09
0.9999999999999915 0.749993921848799 -3.937827855833188e-09
1.249978617879902 0.7499938860722477 -3.65378806578379e-09
1.4999571234442028 0.7499935961762333 -2.8272991287903513e-09
1.7499356651773312 0.7499932403428177 -1.5493339187701815e-09
1.999913634303534 0.7499929025166063 0.0
8.618839550887246e-05 0.9999999999999976 0.0
0.25006450301742916 1.0000000000000036 -1.6643973299241846e-09
0.5000427422729451 0.9999999999999986 -3.0490394792985494e-09
0.7500213463468359 1.0000000000000056 -3.949495852214727e-09
1.0 1.0 -4.259948997308936e-09
1.2499786536531459 1.0000000000000056 -3.949495837716127e-09
1.499957257727057 0.9999999999999987 -3.0490394585351096e-09
1.7499354969825565 1.0000000000000036 -1.6643973150664107e-09
1.9999138116044912 0.9999999999999976 0.0
8.636569644531077e-05 1.2500070974833872 0.0
0.25006433482266716 1.2500067596571822 -1.5493339426094027e-09
0.5000428765557678 1.2500064038237795 -2.8272991620053434e-09
0.7500213821201102 1.2500061139277434 -3.6537880920019173e-09
0.9999999999999915 1.2500060781512183 -3.937827866821784e-09
1.2499786178798964 1.2500061139277476 -3.653788077729037e-09
1.4999571234442068 1.2500064038237773 -2.8272991413687393e-09
1.7499356651773352 1.2500067596571771 -1.5493339277490023e-09
1.999913634303534 1.2500070974834034 0.0
8.697419187360268e-05 1.5000153314661302 0.0
0.2500645545171857 1.5000137813963224 -1.2124363875037975e-09
0.5000427609642317 1.5000122246194845 -2.188301481481465e-09
0.7500216719686115 1.5000123401698022 -2.8020890168250976e-09
1.0000000000000022 1.5000122058372778 -3.0175271404729795e-09
1.2499783280313637 1.5000123401697913 -2.8020890041580164e-09
1.4999572390358087 1.5000122246194987 -2.1883014620291686e-09
1.749935445482766 1.500013781396328 -1.212436372656542e-09
1.9999130258081468 1.5000153314660767 0.0
7.792623536320088e-05 1.7500146638376788 0.0
0.25006610940826296 1.7500203048295666 -6.906346197681401e-10
0.500044317766195 1.7500187500927942 -1.1824020138872816e-09
0.7500220278864822 1.7500185301846396 -1.5179983232162791e-09
0.9999999999999928 1.7500186983710708 -1.6343508155921735e-09
1.2499779721135296 1.75001853018465 -1.5179983154047045e-09
1.4999556822337279 1.7500187500927675 -1.1824020006392758e-09
1.7499338905918729 1.7500203048295637 -6.906346076773867e-10
1.9999220737643486 1.7500146638378888 0.0
0.00016690684893073452 2.0001058142742387 0.0
0.2500604708718118 2.0000168561118072 0.0
0.5000458679820623 2.0000259012479 0.0
0.7500223658251421 2.000025292903601 0.0
1.0 2.000025115541763 0.0
1.2499776341748325 2.0000252929036044 0.0
1.499954132018039 2.00002590124787 0.0
1.7499395291278024 2.00001685611198 0.0
1.999833093152314 2.0001058142732218 0.0

CELLS 64 320
4 0 1 10 9
4 1 2 11 10
4 2 3 12 11
4 3 4 13 12
4 4 5 14 13
4 5 6 15 14
4 6 7 16 15
4 7 8 17 16
4 9 10 19 18
4 10 11 20 19
4 11 12 21 20
4 12 13 22 21
4 13 14 23 22
4 14 15 24 23
4 15 16 25 24
4 16 17 26 25
4 18 19 28 27
4 19 20 29 28
4 20 21 30 29
4 21 22 31 30
4 22 23 32 31
4 23 24 33 32
4 24 25 34 33
4 25 26 35 34
4 27 28 37 36
4 28 29 38 37
4 29 30 39 38
4 30 31 40 39
4 31 32 41 40
4 32 33 42 41
4 33 34 43 42
4 34 35 44 43
4 36 37 46 45
4 37 38 47 46
4 38 39 48 47
4 39 40 49 48
4 40 41 50 49
4 41 42 51 50
4 42 43 52 51
4 43 44 53 52
4 45 46 55 54
4 46 47 56 55
4 47 48 57 56
4 48 49 58 57
4 49 50 59 58
4 50 51 60 59
4 51 52 61 60
4 52 53 62 61
4 54 55 64 63
4 55 56 65 64
4 56 57 66 65
4 57 58 67 66
4 58 59 68 67
4 59 60 69 68
4 60 61 70 69
4 61 62 71 70
4 63 64 73 72
4 64 65 74 73
4 65 66 75 74
4 66 67 76 75
4 67 68 77 76
4 68 69 78 77
4 69 70 79 78
4 70 71 80 79

CELL_TYPES 64
9
9
9
9
9
9
9
9
9
9
9
9
9
9
9
9
9
9
9
9
9
9
9
9
9
9
9
9
9
9
9
9
9
9
9
9
9
9
9
9
9
9
9
9
9
9
9
9
9
9
9
9
9
9
9
9
9
9
9
9
9
9
9
9

POINT_DATA 81
VECTORS DISPLACEMENT float
0.0001669068499978407 -0.00010581427556547929 0.0
6.047087167167103e-05 -1.685611145437004e-05 0.0
4.586798210434484e-05 -2.5901247980111094e-05 0.0
2.2365825120038538e-05 -2.529290355735834e-05 0.0
0.0 -2.5115541775312783e-05 0.0
-2.2365825145493254e-05 -2.5292903560949234e-05 0.0
-4.586798200320842e-05 -2.5901247950549498e-05 0.0
-6.0470872057572336e-05 -1.68561116272014e-05 0.0
-0.00016690684875298424 -0.00010581427454856189 0.0
7.792623517202912e-05 -1.4663837410752681e-05 0.0
6.61094082481463e-05 -2.0304829695796738e-05 -6.906346008513086e-10
4.43177662031665e-05 -1.8750092704052725e-05 -1.1824019958086692e-09
2.2027886481988152e-05 -1.8530184658804602e-05 -1.5179983101346793e-09
-7.21576138826796e-15 -1.8698371048836238e-05 -1.6343508042681966e-09
-2.2027886470280574e-05 -1.8530184669101253e-05 -1.5179983023406583e-09
-4.4317766280207706e-05 -1.8750092677328358e-05 -1.1824019825899038e-09
-6.610940811223842e-05 -2.030482969279621e-05 -6.906345887810602e-10
-7.792623546021133e-05 -1.4663837621112174e-05 0.0
8.697419189541515e-05 -1.5331466131220194e-05 0.0
6.455451718934973e-05 -1.3781396306820005e-05 -1.212436370804062e-09
4.276096421182852e-05 -1.2224619515225871e-05 -2.188301460236917e-09
2.1671968618924245e-05 -1.2340169771399213e-05 -2.8020889990026277e-09
2.072204491610459e-15 -1.2205837286320305e-05 -3.017527124745972e-09
-2.1671968643569685e-05 -1.2340169760604144e-05 -2.802088986352635e-09
-4.276096417124328e-05 -1.222461952940467e-05 -2.188301440809974e-09
-6.455451723763424e-05 -1.3781396312326004e-05 -1.2124363559798546e-09
-8.69741918751168e-05 -1.5331466077649378e-05 0.0
8.636569644523933e-05 -7.097483377088702e-06 0.0
6.433482267110548e-05 -6.759657187844181e-06 -1.5493339336184695e-09
4.287655577206571e-05 -6.403823769030633e-06 -2.8272991494117097e-09
2.1382120104399e-05 -6.113927747911771e-06 -3.6537880800482707e-09
-8.57334685551283e-15 -6.078151201051803e-06 -3.937827855833188e-09
-2.138212009803571e-05 -6.113927752248768e-06 -3.65378806578379e-09
-4.287655579724665e-05 -6.403823766744492e-06 -2.8272991287903513e-09
-6.433482266883636e-05 -6.759657182383192e-06 -1.5493339187701815e-09
-8.63656964661003e-05 -7.0974833936740074e-06 0.0
8.618839550887246e-05 -2.467167861427022e-15 0.0
6.450301742917894e-05 3.617407357567575e-15 -1.6643973299241846e-09
4.2742272945145264e-05 -1.4422448746404055e-15 -3.0490394792985494e-09
2.1346346835881083e-05 5.5326891555441954e-15 -3.949495852214727e-09
0.0 0.0 -4.259948997308936e-09
-2.1346346854213163e-05 5.572954754372059e-15 -3.949495837716127e-09
-4.274227294298523e-05 -1.3755759199879161e-15 -3.0490394585351096e-09
-6.450301744352525e-05 3.637239110516156e-15 -1.6643973150664107e-09
-8.618839550884224e-05 -2.4548481819279654e-15 0.0
8.636569644531077e-05 7.097483387168768e-06 0.0
6.433482266713072e-05 6.759657182310261e-06 -1.5493339426094027e-09
4.287655576789221e-05 6.403823779558229e-06 -2.8272991620053434e-09
2.13821201101566e-05 6.113927743354783e-06 -3.6537880920019173e-09
-8.577287142004883e-15 6.078151218385718e-06 -3.937827866821784e-09
-2.1382120103704542e-05 6.113927747704564e-06 -3.653788077729037e-09
-4.287655579311427e-05 6.403823777160175e-06 -2.8272991413687393e-09
-6.433482266477462e-05 6.759657177019587e-06 -1.5493339277490023e-09
-8.636569646604372e-05 7.0974834035495984e-06 0.0
8.697419187360268e-05 1.533146613020322e-05 0.0
6.455451718569551e-05 1.3781396322390634e-05 -1.2124363875037975e-09
4.276096423173487e-05 1.2224619484576814e-05 -2.188301481481465e-09
2.1671968611473296e-05 1.2340169802221478e-05 -2.8020890168250976e-09
2.1095119603979526e-15 1.220583727789134e-05 -3.0175271404729795e-09
-2.1671968636252194e-05 1.2340169791329346e-05 -2.8020890041580164e-09
-4.276096419126259e-05 1.2224619498618049e-05 -2.1883014620291686e-09
-6.455451723389911e-05 1.3781396327798272e-05 -1.212436372656542e-09
-8.697419185320755e-05 1.5331466076695822e-05 0.0
7.792623536320088e-05 1.466383767870203e-05 0.0
6.610940826298504e-05 2.030482956665494e-05 -6.906346197681401e-10
4.431776619498776e-05 1.8750092794122374e-05 -1.1824020138872816e-09
2.2027886482202418e-05 1.8530184639507877e-05 -1.5179983232162791e-09
-7.171389090460949e-15 1.8698371070916988e-05 -1.6343508155921735e-09
-2.2027886470381625e-05 1.8530184649966104e-05 -1.5179983154047045e-09
-4.431776627200803e-05 1.8750092767429225e-05 -1.1824020006392758e-09
-6.610940812716791e-05 2.0304829563827388e-05 -6.906346076773867e-10
-7.792623565135466e-05 1.46638378888528e-05 0.0
0.00016690684893073452 0.00010581427423894546 0.0
6.047087181183034e-05 1.68561118072993e-05 0.0
4.58679820622774e-05 2.5901247899758096e-05 0.0
2.236582514210257e-05 2.5292903600826204e-05 0.0
0.0 2.5115541763382988e-05 0.0
-2.236582516746818e-05 2.5292903604620545e-05 0.0
-4.586798196098067e-05 2.5901247870213668e-05 0.0
-6.0470872197652605e-05 1.685611198018916e-05 0.0
-0.00016690684768589566 0.00010581427322185725 0.0

SCALARS DISPLACEMENT_MAGNITUDE float 1
LOOKUP_TABLE default
0.00019762225960060493
6.277622809705798e-05
5.2675861922247726e-05
3.37633100223005e-05
2.5115541775312783e-05
3.3763310041852484e-05
5.267586181964654e-05
6.27762285151948e-05
0.00019762225800473487
7.929392319525738e-05
6.91573565744987e-05
4.8120997278185875e-05
2.8785335305621725e-05
1.869837112026231e-05
2.8785335303290873e-05
4.812099733872514e-05
6.915735644369969e-05
7.929392351737076e-05
8.831513975300753e-05
6.600918553645154e-05
4.4474052968062e-05
2.493900602787318e-05
1.2205837659316831e-05
2.493900604394849e-05
4.447405293293739e-05
6.600918558482153e-05
8.831513972371751e-05
8.665683927284261e-05
6.468896641483923e-05
4.335213952890311e-05
2.2239046427753974e-05
6.078152476644173e-06
2.2239046422828196e-05
4.33521395534701e-05
6.468896641201189e-05
8.665683929499188e-05
8.618839550887246e-05
6.45030174506525e-05
4.274227305389757e-05
2.1346347201248456e-05
4.259948997308936e-09
2.1346347219580533e-05
4.274227305173754e-05
6.450301746499881e-05
8.618839550884224e-05
8.665683927373938e-05
6.468896641030795e-05
4.33521395263305e-05
2.223904643203692e-05
6.078152493978092e-06
2.223904642702931e-05
4.335213955092163e-05
6.468896640741191e-05
8.665683929574433e-05
8.831513973134971e-05
6.600918553612868e-05
4.447405297877705e-05
2.4939006036649607e-05
1.220583765088787e-05
2.4939006052792863e-05
4.447405294372323e-05
6.600918558439902e-05
8.831513970197538e-05
7.929392343268367e-05
6.9157356550767e-05
4.8120997305748706e-05
2.8785335293363677e-05
1.8698371142343065e-05
2.87853352910502e-05
4.812099736628085e-05
6.915735642010552e-05
7.929392375473049e-05
0.00019762225798907823
6.277622832683556e-05
5.267586184610674e-05
3.376331006947919e-05
2.5115541763382988e-05
3.376331008912455e-05
5.267586174337441e-05
6.277622874491197e-05
0.00019762225639313158

VECTORS REACTION float
0.0 0.0 0.0
0.0 0.0 0.0
0.0 0.0 0.0
0.0 0.0 0.0
0.0 0.0 0.0
0.0 0.0 0.0
0.0 0.0 0.0
0.0 0.0 0.0
0.0 0.0 0.0
0.0 0.0 0.0
0.0 0.0 0.0
0.0 0.0 0.0
0.0 0.0 0.0
0.0 0.0 0.0
0.0 0.0 0.0
0.0 0.0 0.0
0.0 0.0 0.0
0.0 0.0 0.0
0.0 0.0 0.0
0.0 0.0 0.0
0.0 0.0 0.0
0.0 0.0 0.0
0.0 0.0 0.0
0.0 0.0 0.0
0.0 0.0 0.0
0.0 0.0 0.0
0.0 0.0 0.0
0.0 0.0 0.0
0.0 0.0 0.0
0.0 0.0 0.0
0.0 0.0 0.0
0.0 0.0 0.0
0.0 0.0 0.0
0.0 0.0 0.0
0.0 0.0 0.0
0.0 0.0 0.0
0.0 0.0 0.0
0.0 0.0 0.0
0.0 0.0 0.0
0.0 0.0 0.0
0.0 0.0 0.0
0.0 0.0 0.0
0.0 0.0 0.0
0.0 0.0 0.0
0.0 0.0 0.0
0.0 0.0 0.0
0.0 0.0 0.0
0.0 0.0 0.0
0.0 0.0 0.0
0.0 0.0 0.0
0.0 0.0 0.0
0.0 0.0 0.0
0.0 0.0 0.0
0.0 0.0 0.0
0.0 0.0 0.0
0.0 0.0 0.0
0.0 0.0 0.0
0.0 0.0 0.0
0.0 0.0 0.0
0.0 0.0 0.0
0.0 0.0 0.0
0.0 0.0 0.0
0.0 0.0 0.0
0.0 0.0 0.0
0.0 0.0 0.0
0.0 0.0 0.0
0.0 0.0 0.0
0.0 0.0 0.0
0.0 0.0 0.0
0.0 0.0 0.0
0.0 0.0 0.0
0.0 0.0 0.0
0.0 0.0 0.0
0.0 0.0 0.0
0.0 0.0 0.0
0.0 0.0 0.0
0.0 0.0 0.0
0.0 0.0 0.0
0.0 0.0 0.0
0.0 0.0 0.0
0.0 0.0 0.0

VECTORS ROTATION float
0.0 0.0 0.0009223216389637861
-2.900899845922454e-09 0.0 -0.0001075353838497894
-4.8473470343637165e-09 0.0 1.0545670378306438e-05
-6.235472984787855e-09 0.0 -8.170776580126929e-07
-6.715360132292488e-09 0.0 -6.425921126184631e-15
-6.23547295219145e-09 0.0 8.170776174335625e-07
-4.8473469720960175e-09 0.0 -1.0545669756839078e-05
-2.9008997949470412e-09 0.0 0.00010753538087722843
0.0 0.0 -0.0009223216274397938
0.0 2.9328829640913878e-09 -0.00010756195344485009
-2.498609490240166e-09 2.388618800211322e-09 5.213493339699739e-05
-4.508884942323564e-09 1.6506754121088469e-09 -2.492295753563221e-07
-5.7595411084910165e-09 9.390880526355545e-10 2.080660606713335e-06
-6.198092601544588e-09 -1.5991249570692687e-17 1.0609218868501275e-14
-5.759541085587714e-09 -9.390880829212806e-10 -2.0806606088977106e-06
-4.508884890370129e-09 -1.6506754239665459e-09 2.492294265146132e-07
-2.498609478144086e-09 -2.3886187562160104e-09 -5.2134932537646434e-05
0.0 -2.9328829000515143e-09 0.00010756195125253929
0.0 5.022418484099853e-09 1.0548211367520372e-05
-1.7248251799626013e-09 4.500143347797664e-09 -2.512849427188623e-07
-3.3754623239150477e-09 3.218383838215018e-09 -1.3685117057065425e-06
-4.385720889259192e-09 1.6832491802556205e-09 1.1717594893295367e-06
-4.72928616516583e-09 -2.7277070227025152e-17 -1.0762917817190904e-14
-4.385720878217799e-09 -1.683249222807536e-09 -1.171759490814322e-06
-3.3754623111179292e-09 -3.2183838458140784e-09 1.3685117673921963e-06
-1.7248251787544967e-09 -4.500143315989224e-09 2.5128466949776744e-07
0.0 -5.022418419719473e-09 -1.0548210757132718e-05
0.0 6.3836658726640925e-09 -8.177242646962481e-07
-9.244820343586982e-10 5.805255987160284e-09 2.0804072658696237e-06
-1.74253703442476e-09 4.292307031516871e-09 1.1717485235872055e-06
-2.348234663580499e-09 2.254681023068146e-09 1.1871244710832555e-08
-2.547879742972896e-09 -3.1263878156715e-17 4.0151843633941394e-15
-2.3482346609593533e-09 -2.254681069031094e-09 -1.1871225656031835e-08
-1.74253703370045e-09 -4.292307032706247e-09 -1.171748553850132e-06
-9.244820322511937e-10 -5.805255938319599e-09 -2.0804072136880896e-06
0.0 -6.3836658051986395e-09 8.177241222803508e-07
0.0 6.8493269823729795e-09 2.314531846473674e-14
-1.8383226772866598e-17 6.259739779396883e-09 3.704474278635738e-16
-2.63774770117948e-17 4.668177954819564e-09 -1.575131365682317e-16
-2.5884707017840207e-17 2.4624305566334623e-09 6.54565740087479e-15
-2.4250116820924007e-17 -3.202187478136299e-17 -7.06163563108725e-18
-2.5868348366395348e-17 -2.4624306025414466e-09 -6.540053184096559e-15
-2.6344236974285715e-17 -4.6681779562013545e-09 1.8268923348618345e-16
-1.8359218241800924e-17 -6.259739734688886e-09 -4.107601821152497e-16
0.0 -6.849326916947507e-09 -2.3231844841273015e-14
0.0 6.383665912181822e-09 8.177242573829038e-07
9.244819988079861e-10 5.805256010609337e-09 -2.0804072885966464e-06
1.7425369883813545e-09 4.292307034084656e-09 -1.1717484903022278e-06
2.348234623787135e-09 2.2546810173391183e-09 -1.1871243349920184e-08
2.5478797083216214e-09 -3.128079779564085e-17 -4.004370623787463e-15
2.348234621202113e-09 -2.254681063336126e-09 1.1871224325656045e-08
1.7425369877066373e-09 -4.292307035285169e-09 1.1717485204930373e-06
9.244819967514237e-10 -5.8052559617345995e-09 2.080407236400679e-06
0.0 -6.3836658446602775e-09 -8.177241149710316e-07
0.0 5.022418565102474e-09 -1.0548211380978166e-05
1.724825150948248e-09 4.500143403211414e-09 2.512848767817552e-07
3.375462306249146e-09 3.218383834792431e-09 1.3685117027999167e-06
4.3857208866048596e-09 1.68324916472091e-09 -1.1717595229953237e-06
4.729286163856496e-09 -2.7314549962691625e-17 1.0719016382008465e-14
4.385720875590909e-09 -1.6832492073263262e-09 1.1717595243850663e-06
3.3754622934939566e-09 -3.2183838424090224e-09 -1.3685117644556417e-06
1.72482514976524e-09 -4.500143371349511e-09 -2.5128460367815753e-07
0.0 -5.022418500611965e-09 1.0548210770406729e-05
0.0 2.932883050911409e-09 0.00010756195112077853
2.4986095427660245e-09 2.388618816919082e-09 -5.213493255497848e-05
4.508884978769753e-09 1.6506753897738218e-09 2.4922935717882227e-07
5.759541151008462e-09 9.390880397155891e-10 -2.0806605113760253e-06
6.198092635137413e-09 -1.6027080771215782e-17 -1.0667899719748404e-14
5.7595411280690515e-09 -9.390880700672893e-10 2.080660513548311e-06
4.508884926766759e-09 -1.6506754016406357e-09 -2.492292085227297e-07
2.498609530619101e-09 -2.3886187728574876e-09 5.213493169555501e-05
0.0 -2.932882986782377e-09 -0.00010756194892852856
0.0 0.0 -0.0009223216271712993
2.9008999494851824e-09 0.0 0.00010753538208346128
4.847347116699581e-09 0.0 -1.0545669887407855e-05
6.2354730446102635e-09 0.0 8.170774093608663e-07
6.715360182064027e-09 0.0 6.5069180139390586e-15
6.235473011926213e-09 0.0 -8.170773688897468e-07
4.847347054281515e-09 0.0 1.0545669265900405e-05
2.9008998984112397e-09 0.0 -0.00010753537911089503
0.0 0.0 0.0009223216156472433
